[Molden Format]
[Molpro variables]
_NUMVAR=  887.0000000000000    
_AVOGAD= 0.6022136736000000E+24
_BOLTZ= 0.1380658000000000E-22
_CLIGHT=  29979245800.00000    
_EV= 0.3674932379085202E-01
_ENULL= 0.8854187817000000E-11
_KJOULE= 0.3808798324128737E-03
_KJOULE/MOL= 0.3808798324128737E-03
_CM= 0.4556335267302901E-05
_CM-1= 0.4556335267302901E-05
_DEB2SI= 0.3335641000000000E-29
_AMU2AU=  1822.888390000000    
_KCAL= 0.1593601117815568E-02
_KCAL/MOL= 0.1593601117815568E-02
_KELVIN= 0.3166811411060229E-05
_JOULE= 0.4359748200000000E-17
_HERTZ= 0.1519829846004524E-15
_HZ= 0.1519829846004524E-15
_JPCAL=  4.184000000000000    
_PLANCK= 0.6626075540000000E-33
_TOA= 0.5291772109200000    
_TOANG= 0.5291772109200000    
_TORAD= 0.1745329251994330E-01
_TOCM=  219474.6306700000    
_TODEBYE=  2.541580000000000    
_TOE= 0.4803242000000000E-09
_TOEV=  27.21138505000000    
_TOHERTZ=  6579683920729000.    
_TOHZ=  6579683920729000.    
_TOK=  315775.0400000000    
_TOKCAL=  627.5096000000000    
_TOKELVIN=  315775.0400000000    
_TOKJ=  2625.500000000000    
_TOKJOULE=  2625.500000000000    
_TOKG= 0.1660565586000000E-26
_ANG=  1.889726124565062    
_ANGSTROM=  1.889726124565062    
_RPAREF=  0.000000000000000    
_RPADISS=  0.000000000000000    
_IGNORE_UNDEF=  2.000000000000000    
_STRICTCHECK=  0.000000000000000    
_SEW_ONEEL=  0.000000000000000    
_CPPDONE=FALSE
_DKROLL_DONE=  0.000000000000000    
_FOCKDONE=TRUE
_GRADONE=FALSE
_HESSDONE=FALSE
_INTDONE=TRUE
_SCFDONE=TRUE
_MODUL_BLOCK=FALSE
_MODUL_CUDA=FALSE
_MODUL_SLATER=FALSE
_MODUL_MRCC=FALSE
_MODUL_NBO6=FALSE
_MODUL_NECI=TRUE
_MODUL_AIMS=TRUE
_MRCC_EXEC=
_FITC_AO_SAVED=FALSE
_FITC_MO_SAVED=FALSE
_SHARED_FS=TRUE
_LSTYP=SEWARD
_INTYP=INTS
_GEOMTYP=ZMAT
_GRADTYP=ALASKA
_DIRECT=FALSE
_DKHO= -1.000000000000000    
_SYNCM=  0.000000000000000    
_BASIS=AUG-CC-PVTZ
_ZORIENT=  1.000000000000000    
_NELEC=  18.00000000000000    
!SPIN=  0.000000000000000    
_QSDSTEP=  0.000000000000000    
_QSDIRC=  0.000000000000000    
_PROGRAM=RHF-SCF
_CPUSTEP= 0.8000000000000007E-01
_SYSSTEP= 0.1000000000000001E-01
_WALLSTEP= 0.1500000000000000    
!DFSCF=  0.000000000000000    
!SCSGRD=  0.000000000000000    
_BASINP=  610.0000000000000    
_CPUTOT=  2.460000000000000    
_CPUSORT= 0.2100000000000000    
_SYSSORT= 0.3000000000000003E-01
_WALLSORT=  1.619999997317791    
_DFTEXFAC=  1.000000000000000    
_DMX=  0.000000000000000    
_DMY=  0.000000000000000    
_DMZ=  0.000000000000000    
_DMX_SCF=  0.000000000000000    
_DMY_SCF=  0.000000000000000    
_DMZ_SCF=  0.000000000000000    
_EHOMO=-0.5913669938646986    
_ELUMO= 0.1297598021944573    
_EIGS= -118.6120701802004    
_ENERGY= -526.8133521669600    
_ENERGY_METHOD=RHF
_ENERGY_BASIS=aug-cc-pVTZ
_ENUC=  0.000000000000000    
_GRADEXFAC=  9999.000000000000    
_GRADMETHOD=  1.000000000000000    
_NMRMETHOD=  0.000000000000000    
_NMRMAGNET=  0.000000000000000    
!GRID_FREEZE= -1.000000000000000    
_ITERATIONS=  6.000000000000000    
_LASTNELEC=  18.00000000000000    
_LASTSPIN=  0.000000000000000    
_LASTSYM=  1.000000000000000    
_MPP_PROG=  1.000000000000000    
_MSNSTATES=  0.000000000000000    
_RS2PHASE=  0.000000000000000    
_NPROC_MPP=  30.00000000000000    
_NPROC_MPPX=  30.00000000000000    
_NPROC_SMP=  1.000000000000000    
_NUMSTEP=  0.000000000000000    
_ORBITAL=  2100.200000000000    
_PI=  3.141592653589793    
_SEIG_MIN= 0.6320882493023956E-02
_SEWPROP=TRUE
_STATUS=  1.000000000000000    
_SYSTOT= 0.8000000000000000    
_VERSION=  2015001.000000000    
_WALLTOT=  9.770000000000000    
_DATE=27-Mar-20
_LASTORB=RHF
_MACHINE= 64 bit mpp version
_OUTPUT=/global/cscratch1/sd/rbello/Quantum_Chem/Atomic/molpro.xml
_PGROUP=D2h
_TIME=14:37:31
_LIBMOL=/global/common/cori/software/molpro/2015/molprop_2015_1_linux_x86_64_i8/lib/
_VIGRDC=  0.000000000000000    
!VIBCNT=  0.000000000000000    
!RGHFCNT=  0.000000000000000    
!SURFREC=  0.000000000000000    
!ROTREC=  0.000000000000000    
!POLYREC=  0.000000000000000    
!DIPREC=  0.000000000000000    
!DIP4DREC=  0.000000000000000    
!DIPROT=  0.000000000000000    
!DIP4DROT=  0.000000000000000    
!PTREC=  0.000000000000000    
!PT4DREC=  0.000000000000000    
!VSCFREC=  0.000000000000000    
!VCIREC=  0.000000000000000    
!PVCIREC=  0.000000000000000    
!VMP2REC=  0.000000000000000    
!VMCSCFREC=  0.000000000000000    
!VMRCIREC=  0.000000000000000    
!VIBSTATEREC=  0.000000000000000    
!VIBSTATECNT=  0.000000000000000    
!VIBINFO=  0.000000000000000    
!GAREC=  0.000000000000000    
!SCFORB=  21002.00000000000    
!NEWMOL= -1.000000000000000    
!NEWSYM= -1.000000000000000    
_SLFILES=slscratch
_NGSSTO=  9.000000000000000    
_SIN=SIN
_COS=COS
_TAN=TAN
_ACOS=ACOS
_ASIN=ASIN
_ATAN=ATAN
_COSH=COSH
_SINH=SINH
_TANH=TANH
_ABS=ABS
_MOD=MOD
_ERF=ERF
_REFC=REFC
_ERFC=ERFC
_HYPOT=HYPOT
_J0=J0
_J1=J1
_JN=JN
_GAMMA=GAMMA
_LGAMMA=LGAMMA
_Y0=Y0
_Y1=Y1
_YN=YN
_EXP=EXP
_LOG=LOG
_LOG10=LOG10
_SQRT=SQRT
_INT=INT
_NINT=NINT
_MAX=MAX
_MIN=MIN
_COSMO=  0.000000000000000    
_COSMOIT=  0.000000000000000    
_COSMOES=  0.000000000000000    
_COSMOEDS=  0.000000000000000    
_COSMOEC=  0.000000000000000    
_COSMOEDCORR=  0.000000000000000    
_FEPSI=  1.000000000000000    
_SL_IsMM=  0.000000000000000    
_SL_NSYM=  8.000000000000000    
_SL_System_BitSw=  0.000000000000000    
_SL_Unique_atoms=  0.000000000000000    
_SL_GRAD=  0.000000000000000    
_SL_MAXUPD_Hess=  5.000000000000000    
_SL_N_PRINT_COD=  5.000000000000000    
_SL_PRINT_CODES=  0.000000000000000    
_SL_BasType=  0.000000000000000    
_SL_Energy_Pred=  0.000000000000000    
_SL_New_Coords=  0.000000000000000    
_SL_Total_Nuclea=  0.000000000000000    
_SL_Highest_Mltp=  0.000000000000000    
_SL_Ref_Geom=  0.000000000000000    
_SL_Symmetry_ope=  1.000000000000000    
_SL_agrad=  0.000000000000000    
_SL_GrdMax=  0.000000000000000    
_SL_GrdNorm=  0.000000000000000    
_SL_GrdRMS=  0.000000000000000    
_SL_Hss_Q=  0.000000000000000    
_SL_Hss_X=  0.000000000000000    
_SL_BMxOld=  0.000000000000000    
_SL_KtB=  0.000000000000000    
_SL_TROld=  0.000000000000000    
_SL_No_of_Intern=  0.000000000000000    
_SL_Hess=  0.000000000000000    
_SL_K=  0.000000000000000    
!LATTICE= -1.000000000000000    
!NEWLATTICE=  0.000000000000000    
!LATGRAD_VAR=FALSE
!SEW_LATTICE=  1.000000000000000    
!LOCAL=  0.000000000000000    
!SAVEDOM= -1.000000000000000    
!RESTDOM= -1.000000000000000    
!SAVEDOM_HF= -1.000000000000000    
!RESTDOM_HF= -1.000000000000000    
!HESSREC=  0.000000000000000    
!FREQREC=  0.000000000000000    
!NMODREC=  0.000000000000000    
!GTASKS=  0.000000000000000    
!HTASKS=  0.000000000000000    
!SAVEDOM_EOM= -1.000000000000000    
!RESTDOM_EOM= -1.000000000000000    
!GRADSTATE= -1.000000000000000    
!THRCHG= 0.1000000000000000    
!DEBUG= -1.000000000000000    
!CFIT_CPHF=  0.000000000000000    
!RDOMAUX_CPHF=  3.000000000000000    
!THRAO_CPHF= 0.1000000000000000E-09
!THRMO_CPHF= 0.1000000000000000E-08
!THROV_CPHF= 0.1000000000000000E-11
!THRSW_CPHF= 0.1000000000000000E-09
!THRPROD_CPHF= 0.1000000000000000E-08
!THRAOPR_CPHF= 0.1000000000000000E-11
!CFIT_SCFGRD=  0.000000000000000    
!RDOMAUX_SCFGRD=  5.000000000000000    
!THRAO_SCFGRD= 0.1000000000000000E-09
!THRMO_SCFGRD= 0.1000000000000000E-08
!THROV_SCFGRD= 0.1000000000000000E-11
!THRSW_SCFGRD= 0.1000000000000000E-09
!THRPROD_SCFGRD= 0.1000000000000000E-08
!THRAOPR_SCFGRD= 0.1000000000000000E-11
!LOCFIT_SCF=  0.000000000000000    
!LOCFIT_MP2= -1.000000000000000    
_RIDOM=  0.000000000000000    
!CC2_METHOD=  0.000000000000000    
_BASIS2006=FALSE
_SVDDEL= -1.000000000000000    
_SVDDELA= -1.000000000000000    
_SVDDELP= -1.000000000000000    
_SVDDELF= -1.000000000000000    
_SVDDELS= -1.000000000000000    
_SVDDEL_ABS= -1.000000000000000    
_SVDDELA_ABS= -1.000000000000000    
_SVDDELP_ABS= -1.000000000000000    
_SVDDELF_ABS= -1.000000000000000    
_SVDDELS_ABS= -1.000000000000000    
_MAXBASIS=  0.000000000000000    
!OPT_CONICAL=  0.000000000000000    
!CLEARSP_JGRID=  0.000000000000000    
_GRDHYBR=  0.000000000000000    
_STATEGRAD=  1.000000000000000    
_4EXT_NDISKS=  1.000000000000000    
!ZMP=  0.000000000000000    
_MAXIT_ZMP=  500.0000000000000    
_MAXDIS_ZMP=  100.0000000000000    
_ACCU_ZMP=  14.00000000000000    
_SHIFTA_ZMP= -100.0000000000000    
!EMBEDFLAG=  1.000000000000000    
!EMBED=FALSE
!EMBED_F12=FALSE
!EMBEDNUC=  0.000000000000000    
_EMBEDENERGY=  0.000000000000000    
_KSPACETIME=  0.000000000000000    
_RSPACETIME=  0.000000000000000    
!EMBED_DFC=FALSE
!NUM_VOIDS=  0.000000000000000    
_IBODY=  0.000000000000000    
_EMBE_TOTAL=  0.000000000000000    
_EMBE_HF=  0.000000000000000    
_EMBE_CORR=  0.000000000000000    
!EMBED_PROJ=FALSE
!EMBED_TRUNC=  0.000000000000000    
!EMB_PROJ_ZMU=  1000000.000000000    
!CORRECTION=  0.000000000000000    
!CORRECTION_HF=  0.000000000000000    
!EMBED_ENERGY=  0.000000000000000    
!EMBED_NAXC=FALSE
!EMBED_AORB=  0.000000000000000    
!EMBED_NACORR=  0.000000000000000    
!EMBED_MP2=FALSE
!EMBED_TRUNC_PERTURBATION=FALSE
!EMBED_FROZEN=  0.000000000000000    
_CHANGE_BASIS=FALSE
_RESTORE_BASIS=FALSE
_FIX_EMBED_GUESS=FALSE
!EDFT=  0.000000000000000    
_IFASTLATGRAD=  0.000000000000000    
_SINDEX=  0.000000000000000    
_AVDOM_OSV=  0.000000000000000    
_AVDOM_PNO=  0.000000000000000    
_AVDOM_PAO=  0.000000000000000    
_AVDOM_LMO=  0.000000000000000    
_CC2OSV_FLAG=  0.000000000000000    
_TMADC2_FLAG=FALSE
_PROPADC2_FLAG=FALSE
_LEN_VirQ=  0.000000000000000    
_GRDCC2LR_FLAG=FALSE
_GRDADC2_FLAG=FALSE
GX1=  0.000000000000000    
GY1=  0.000000000000000    
GZ1=  0.000000000000000    
[Atoms] Angs
AR    1   18         0.0000000000        0.0000000000        0.0000000000
[GTO]
   1 0
 s   15  1.00
  0.5450000000D+06  0.4558277631D-04
  0.8164000000D+05  0.3541078160D-03
  0.1858000000D+05  0.1857969034D-02
  0.5261000000D+04  0.7768505963D-02
  0.1717000000D+04  0.2742318575D-01
  0.6199000000D+03  0.8238355718D-01
  0.2416000000D+03  0.2012298954D+00
  0.9979000000D+02  0.3567808146D+00
  0.4315000000D+02  0.3495628183D+00
  0.1914000000D+02  0.1182659385D+00
  0.7488000000D+01  0.5601897089D-02
  0.3205000000D+01  0.4834727487D-03
  0.1196000000D+01 -0.1480849230D-03
  0.5204000000D+00  0.2920248482D-04
  0.1954000000D+00 -0.2316038796D-04
 s   15  1.00
  0.5450000000D+06 -0.1295509574D-04
  0.8164000000D+05 -0.1004279670D-03
  0.1858000000D+05 -0.5295828259D-03
  0.5261000000D+04 -0.2213959272D-02
  0.1717000000D+04 -0.7968447381D-02
  0.6199000000D+03 -0.2458029192D-01
  0.2416000000D+03 -0.6577977838D-01
  0.9979000000D+02 -0.1379419547D+00
  0.4315000000D+02 -0.2016299337D+00
  0.1914000000D+02 -0.4128338643D-01
  0.7488000000D+01  0.4846798407D+00
  0.3205000000D+01  0.5792238096D+00
  0.1196000000D+01  0.8790827110D-01
  0.5204000000D+00 -0.7275527608D-02
  0.1954000000D+00  0.2328839234D-02
 s   15  1.00
  0.5450000000D+06  0.4049898515D-05
  0.8164000000D+05  0.3136908850D-04
  0.1858000000D+05  0.1656459393D-03
  0.5261000000D+04  0.6916617464D-03
  0.1717000000D+04  0.2497899084D-02
  0.6199000000D+03  0.7710737173D-02
  0.2416000000D+03  0.2087139235D-01
  0.9979000000D+02  0.4439648372D-01
  0.4315000000D+02  0.6802237506D-01
  0.1914000000D+02  0.1413499482D-01
  0.7488000000D+01 -0.2074889239D+00
  0.3205000000D+01 -0.4250448441D+00
  0.1196000000D+01  0.7048547415D-01
  0.5204000000D+00  0.7336267310D+00
  0.1954000000D+00  0.3960048548D+00
 s   15  1.00
  0.5450000000D+06  0.0000000000D+00
  0.8164000000D+05  0.0000000000D+00
  0.1858000000D+05  0.0000000000D+00
  0.5261000000D+04  0.0000000000D+00
  0.1717000000D+04  0.0000000000D+00
  0.6199000000D+03  0.0000000000D+00
  0.2416000000D+03  0.0000000000D+00
  0.9979000000D+02  0.0000000000D+00
  0.4315000000D+02  0.0000000000D+00
  0.1914000000D+02  0.0000000000D+00
  0.7488000000D+01  0.0000000000D+00
  0.3205000000D+01  0.0000000000D+00
  0.1196000000D+01  0.1000000000D+01
  0.5204000000D+00  0.0000000000D+00
  0.1954000000D+00  0.0000000000D+00
 s   15  1.00
  0.5450000000D+06  0.0000000000D+00
  0.8164000000D+05  0.0000000000D+00
  0.1858000000D+05  0.0000000000D+00
  0.5261000000D+04  0.0000000000D+00
  0.1717000000D+04  0.0000000000D+00
  0.6199000000D+03  0.0000000000D+00
  0.2416000000D+03  0.0000000000D+00
  0.9979000000D+02  0.0000000000D+00
  0.4315000000D+02  0.0000000000D+00
  0.1914000000D+02  0.0000000000D+00
  0.7488000000D+01  0.0000000000D+00
  0.3205000000D+01  0.0000000000D+00
  0.1196000000D+01  0.0000000000D+00
  0.5204000000D+00  0.0000000000D+00
  0.1954000000D+00  0.1000000000D+01
 s    1  1.00
  0.6850000000D-01  0.1000000000D+01
 p    9  1.00
  0.7618000000D+03  0.2369759122D-02
  0.1802000000D+03  0.1901989296D-01
  0.5750000000D+02  0.8808066738D-01
  0.2124000000D+02  0.2563769050D+00
  0.8388000000D+01  0.4387108375D+00
  0.3416000000D+01  0.3475688713D+00
  0.1206000000D+01  0.5667397901D-01
  0.4523000000D+00 -0.5238818060D-02
  0.1545000000D+00  0.1643759391D-02
 p    9  1.00
  0.7618000000D+03 -0.6672111063D-03
  0.1802000000D+03 -0.5327170849D-02
  0.5750000000D+02 -0.2554940407D-01
  0.2124000000D+02 -0.7571971206D-01
  0.8388000000D+01 -0.1411330225D+00
  0.3416000000D+01 -0.9327681486D-01
  0.1206000000D+01  0.2828720451D+00
  0.4523000000D+00  0.5624500896D+00
  0.1545000000D+00  0.3250590518D+00
 p    9  1.00
  0.7618000000D+03  0.0000000000D+00
  0.1802000000D+03  0.0000000000D+00
  0.5750000000D+02  0.0000000000D+00
  0.2124000000D+02  0.0000000000D+00
  0.8388000000D+01  0.0000000000D+00
  0.3416000000D+01  0.0000000000D+00
  0.1206000000D+01  0.1000000000D+01
  0.4523000000D+00  0.0000000000D+00
  0.1545000000D+00  0.0000000000D+00
 p    9  1.00
  0.7618000000D+03  0.0000000000D+00
  0.1802000000D+03  0.0000000000D+00
  0.5750000000D+02  0.0000000000D+00
  0.2124000000D+02  0.0000000000D+00
  0.8388000000D+01  0.0000000000D+00
  0.3416000000D+01  0.0000000000D+00
  0.1206000000D+01  0.0000000000D+00
  0.4523000000D+00  0.0000000000D+00
  0.1545000000D+00  0.1000000000D+01
 p    1  1.00
  0.4870000000D-01  0.1000000000D+01
 d    1  1.00
  0.4100000000D+00  0.1000000000D+01
 d    1  1.00
  0.1254000000D+01  0.1000000000D+01
 d    1  1.00
  0.1690000000D+00  0.1000000000D+01
 f    1  1.00
  0.8900000000D+00  0.1000000000D+01
 f    1  1.00
  0.4060000000D+00  0.1000000000D+01
 
 
[MO]
 Sym=      1.1
 Ene=    -118.6121
 Spin= Alpha
 Occup=    2.000000
1 1.00000105697354
2 0.000005462645666
3 0.000011276976414
4 -0.000003522264281
5 -0.000015545391961
6 0.000007086494536
7 0.0
8 0.0
9 0.0
10 0.0
11 0.0
12 0.0
13 0.0
14 0.0
15 0.0
16 0.0
17 0.0
18 0.0
19 0.0
20 0.0
21 0.0
22 0.000000000000404
23 0.000000000000404
24 -0.000000000000808
25 0.0
26 0.0
27 0.0
28 -0.000000000000328
29 -0.000000000000328
30 0.000000000000655
31 0.0
32 0.0
33 0.0
34 0.000000000000418
35 0.000000000000418
36 -0.000000000000837
37 0.0
38 0.0
39 0.0
40 0.0
41 0.0
42 0.0
43 0.0
44 0.0
45 0.0
46 0.0
47 0.0
48 0.0
49 0.0
50 0.0
51 0.0
52 0.0
53 0.0
54 0.0
55 0.0
56 0.0
57 0.0
58 0.0
59 0.0
 Sym=      2.1
 Ene=     -12.3232
 Spin= Alpha
 Occup=    2.000000
1 -0.000099658999668
2 0.99940831758327
3 -0.000989223247759
4 0.000356345867015
5 0.001361529284665
6 -0.000631634546201
7 0.0
8 0.0
9 0.0
10 0.0
11 0.0
12 0.0
13 0.0
14 0.0
15 0.0
16 0.0
17 0.0
18 0.0
19 0.0
20 0.0
21 0.0
22 -0.000000000003691
23 -0.000000000003691
24 0.000000000007383
25 0.0
26 0.0
27 0.0
28 0.000000000002134
29 0.000000000002134
30 -0.000000000004269
31 0.0
32 0.0
33 0.0
34 0.000000000004627
35 0.000000000004627
36 -0.000000000009254
37 0.0
38 0.0
39 0.0
40 0.0
41 0.0
42 0.0
43 0.0
44 0.0
45 0.0
46 0.0
47 0.0
48 0.0
49 0.0
50 0.0
51 0.0
52 0.0
53 0.0
54 0.0
55 0.0
56 0.0
57 0.0
58 0.0
59 0.0
 Sym=      1.5
 Ene=      -9.5721
 Spin= Alpha
 Occup=    2.000000
1 0.0
2 0.0
3 0.0
4 0.0
5 0.0
6 0.0
7 0.0
8 0.0
9 0.99974379063826
10 0.0
11 0.0
12 -0.000782739310296
13 0.0
14 0.0
15 0.000398252745718
16 0.0
17 0.0
18 0.000963485007806
19 0.0
20 0.0
21 -0.000676562539111
22 0.0
23 0.0
24 0.0
25 0.0
26 0.0
27 0.0
28 0.0
29 0.0
30 0.0
31 0.0
32 0.0
33 0.0
34 0.0
35 0.0
36 0.0
37 0.0
38 0.0
39 0.0
40 0.0
41 0.0
42 0.000000000006504
43 0.0
44 0.0
45 -0.000000000004363
46 0.0
47 0.0
48 -0.000000000004363
49 0.0
50 0.0
51 0.0
52 -0.000000000008517
53 0.0
54 0.0
55 0.000000000005713
56 0.0
57 0.0
58 0.000000000005713
59 0.0
 Sym=      1.2
 Ene=      -9.5721
 Spin= Alpha
 Occup=    2.000000
1 0.0
2 0.0
3 0.0
4 0.0
5 0.0
6 0.0
7 0.99974379063861
8 0.0
9 0.0
10 -0.000782739309573
11 0.0
12 0.0
13 0.000398252745069
14 0.0
15 0.0
16 0.000963485007458
17 0.0
18 0.0
19 -0.000676562539072
20 0.0
21 0.0
22 0.0
23 0.0
24 0.0
25 0.0
26 0.0
27 0.0
28 0.0
29 0.0
30 0.0
31 0.0
32 0.0
33 0.0
34 0.0
35 0.0
36 0.0
37 0.0
38 0.0
39 0.0
40 -0.000000000005053
41 0.0
42 0.0
43 -0.000000000003919
44 0.0
45 0.0
46 0.000000000010699
47 0.0
48 0.0
49 0.0
50 0.000000000005225
51 0.0
52 0.0
53 0.000000000004896
54 0.0
55 0.0
56 -0.000000000011907
57 0.0
58 0.0
59 0.0
 Sym=      1.3
 Ene=      -9.5721
 Spin= Alpha
 Occup=    2.000000
1 0.0
2 0.0
3 0.0
4 0.0
5 0.0
6 0.0
7 0.0
8 0.99974379063861
9 0.0
10 0.0
11 -0.000782739309570
12 0.0
13 0.0
14 0.000398252745067
15 0.0
16 0.0
17 0.000963485007456
18 0.0
19 0.0
20 -0.000676562539071
21 0.0
22 0.0
23 0.0
24 0.0
25 0.0
26 0.0
27 0.0
28 0.0
29 0.0
30 0.0
31 0.0
32 0.0
33 0.0
34 0.0
35 0.0
36 0.0
37 0.0
38 0.0
39 0.0
40 0.0
41 -0.000000000005053
42 0.0
43 0.0
44 -0.000000000003919
45 0.0
46 0.0
47 0.000000000010699
48 0.0
49 0.0
50 0.0
51 0.000000000005225
52 0.0
53 0.0
54 0.000000000004896
55 0.0
56 0.0
57 -0.000000000011907
58 0.0
59 0.0
 Sym=      3.1
 Ene=      -1.2779
 Spin= Alpha
 Occup=    2.000000
1 0.000415009985022
2 0.002585351479259
3 1.00467729235775
4 -0.001091034392793
5 -0.008078954137431
6 0.004715236995053
7 0.0
8 0.0
9 0.0
10 0.0
11 0.0
12 0.0
13 0.0
14 0.0
15 0.0
16 0.0
17 0.0
18 0.0
19 0.0
20 0.0
21 0.0
22 0.000000000018647
23 0.000000000018646
24 -0.000000000037293
25 0.0
26 0.0
27 0.0
28 0.000000000010398
29 0.000000000010398
30 -0.000000000020797
31 0.0
32 0.0
33 0.0
34 0.000000000000564
35 0.000000000000565
36 -0.000000000001129
37 0.0
38 0.0
39 0.0
40 0.0
41 0.0
42 0.0
43 0.0
44 0.0
45 0.0
46 0.0
47 0.0
48 0.0
49 0.0
50 0.0
51 0.0
52 0.0
53 0.0
54 0.0
55 0.0
56 0.0
57 0.0
58 0.0
59 0.0
 Sym=      2.5
 Ene=      -0.5914
 Spin= Alpha
 Occup=    2.000000
1 0.0
2 0.0
3 0.0
4 0.0
5 0.0
6 0.0
7 0.0
8 0.0
9 0.001945549176320
10 0.0
11 0.0
12 1.00586722446283
13 0.0
14 0.0
15 -0.002784797151444
16 0.0
17 0.0
18 -0.010255854874518
19 0.0
20 0.0
21 0.010643108697198
22 0.0
23 0.0
24 0.0
25 0.0
26 0.0
27 0.0
28 0.0
29 0.0
30 0.0
31 0.0
32 0.0
33 0.0
34 0.0
35 0.0
36 0.0
37 0.0
38 0.0
39 0.0
40 0.0
41 0.0
42 -0.000000000007208
43 0.0
44 0.0
45 0.000000000004835
46 0.0
47 0.0
48 0.000000000004835
49 0.0
50 0.0
51 0.0
52 0.000000000008908
53 0.0
54 0.0
55 -0.000000000005976
56 0.0
57 0.0
58 -0.000000000005976
59 0.0
 Sym=      2.3
 Ene=      -0.5914
 Spin= Alpha
 Occup=    2.000000
1 0.0
2 0.0
3 0.0
4 0.0
5 0.0
6 0.0
7 0.0
8 0.001945549175822
9 0.0
10 0.0
11 1.00586722446157
12 0.0
13 0.0
14 -0.002784797150616
15 0.0
16 0.0
17 -0.010255854873630
18 0.0
19 0.0
20 0.010643108697151
21 0.0
22 0.0
23 0.0
24 0.0
25 0.0
26 0.0
27 0.0
28 0.0
29 0.0
30 0.0
31 0.0
32 0.0
33 0.0
34 0.0
35 0.0
36 0.0
37 0.0
38 0.0
39 0.0
40 0.0
41 0.000000000005993
42 0.0
43 0.0
44 0.000000000003298
45 0.0
46 0.0
47 -0.000000000011338
48 0.0
49 0.0
50 0.0
51 0.000000000002291
52 0.0
53 0.0
54 0.000000000002873
55 0.0
56 0.0
57 -0.000000000005946
58 0.0
59 0.0
 Sym=      2.2
 Ene=      -0.5914
 Spin= Alpha
 Occup=    2.000000
1 0.0
2 0.0
3 0.0
4 0.0
5 0.0
6 0.0
7 0.001945549175831
8 0.0
9 0.0
10 1.00586722446161
11 0.0
12 0.0
13 -0.002784797150631
14 0.0
15 0.0
16 -0.010255854873661
17 0.0
18 0.0
19 0.010643108697158
20 0.0
21 0.0
22 0.0
23 0.0
24 0.0
25 0.0
26 0.0
27 0.0
28 0.0
29 0.0
30 0.0
31 0.0
32 0.0
33 0.0
34 0.0
35 0.0
36 0.0
37 0.0
38 0.0
39 0.0
40 0.000000000005993
41 0.0
42 0.0
43 0.000000000003298
44 0.0
45 0.0
46 -0.000000000011338
47 0.0
48 0.0
49 0.0
50 0.000000000002291
51 0.0
52 0.0
53 0.000000000002873
54 0.0
55 0.0
56 -0.000000000005946
57 0.0
58 0.0
59 0.0
 Sym=      3.5
 Ene=       0.1298
 Spin= Alpha
 Occup=    0.000000
1 0.0
2 0.0
3 0.0
4 0.0
5 0.0
6 0.0
7 0.0
8 0.0
9 0.060825840912594
10 0.0
11 0.0
12 -0.029306787097581
13 0.0
14 0.0
15 -0.094596070669536
16 0.0
17 0.0
18 -0.51377699795383
19 0.0
20 0.0
21 1.26359182802864
22 0.0
23 0.0
24 0.0
25 0.0
26 0.0
27 0.0
28 0.0
29 0.0
30 0.0
31 0.0
32 0.0
33 0.0
34 0.0
35 0.0
36 0.0
37 0.0
38 0.0
39 0.0
40 0.0
41 0.0
42 0.000000000020110
43 0.0
44 0.0
45 -0.000000000013490
46 0.0
47 0.0
48 -0.000000000013490
49 0.0
50 0.0
51 0.0
52 -0.000000000076944
53 0.0
54 0.0
55 0.000000000051615
56 0.0
57 0.0
58 0.000000000051615
59 0.0
 Sym=      3.3
 Ene=       0.1298
 Spin= Alpha
 Occup=    0.000000
1 0.0
2 0.0
3 0.0
4 0.0
5 0.0
6 0.0
7 0.0
8 0.060825840913939
9 0.0
10 0.0
11 -0.029306787091736
12 0.0
13 0.0
14 -0.094596070671329
15 0.0
16 0.0
17 -0.51377699796076
18 0.0
19 0.0
20 1.26359182803064
21 0.0
22 0.0
23 0.0
24 0.0
25 0.0
26 0.0
27 0.0
28 0.0
29 0.0
30 0.0
31 0.0
32 0.0
33 0.0
34 0.0
35 0.0
36 0.0
37 0.0
38 0.0
39 0.0
40 0.0
41 -0.000000000041863
42 0.0
43 0.0
44 -0.000000000019108
45 0.0
46 0.0
47 0.000000000075272
48 0.0
49 0.0
50 0.0
51 0.000000000075029
52 0.0
53 0.0
54 0.000000000034587
55 0.0
56 0.0
57 -0.000000000135249
58 0.0
59 0.0
 Sym=      3.2
 Ene=       0.1298
 Spin= Alpha
 Occup=    0.000000
1 0.0
2 0.0
3 0.0
4 0.0
5 0.0
6 0.0
7 0.060825840913937
8 0.0
9 0.0
10 -0.029306787091744
11 0.0
12 0.0
13 -0.094596070671326
14 0.0
15 0.0
16 -0.51377699796075
17 0.0
18 0.0
19 1.26359182803064
20 0.0
21 0.0
22 0.0
23 0.0
24 0.0
25 0.0
26 0.0
27 0.0
28 0.0
29 0.0
30 0.0
31 0.0
32 0.0
33 0.0
34 0.0
35 0.0
36 0.0
37 0.0
38 0.0
39 0.0
40 -0.000000000041863
41 0.0
42 0.0
43 -0.000000000019108
44 0.0
45 0.0
46 0.000000000075272
47 0.0
48 0.0
49 0.0
50 0.000000000075029
51 0.0
52 0.0
53 0.000000000034587
54 0.0
55 0.0
56 -0.000000000135249
57 0.0
58 0.0
59 0.0
 Sym=      4.1
 Ene=       0.1454
 Spin= Alpha
 Occup=    0.000000
1 0.030149430408910
2 0.17667287926328
3 0.022704398585700
4 -0.075194800190948
5 -1.23364552249939
6 1.72159250828814
7 0.0
8 0.0
9 0.0
10 0.0
11 0.0
12 0.0
13 0.0
14 0.0
15 0.0
16 0.0
17 0.0
18 0.0
19 0.0
20 0.0
21 0.0
22 0.000000000124638
23 0.000000000124638
24 -0.000000000249276
25 0.0
26 0.0
27 0.0
28 -0.000000000055494
29 -0.000000000055494
30 0.000000000110989
31 0.0
32 0.0
33 0.0
34 -0.000000000109052
35 -0.000000000109052
36 0.000000000218103
37 0.0
38 0.0
39 0.0
40 0.0
41 0.0
42 0.0
43 0.0
44 0.0
45 0.0
46 0.0
47 0.0
48 0.0
49 0.0
50 0.0
51 0.0
52 0.0
53 0.0
54 0.0
55 0.0
56 0.0
57 0.0
58 0.0
59 0.0
 Sym=      1.6
 Ene=       0.4089
 Spin= Alpha
 Occup=    0.000000
1 0.0
2 0.0
3 0.0
4 0.0
5 0.0
6 0.0
7 0.0
8 0.0
9 0.0
10 0.0
11 0.0
12 0.0
13 0.0
14 0.0
15 0.0
16 0.0
17 0.0
18 0.0
19 0.0
20 0.0
21 0.0
22 0.0
23 0.0
24 0.0
25 0.0
26 -0.060436505433193
27 0.0
28 0.0
29 0.0
30 0.0
31 0.0
32 0.16595819892520
33 0.0
34 0.0
35 0.0
36 0.0
37 0.0
38 0.99750489506174
39 0.0
40 0.0
41 0.0
42 0.0
43 0.0
44 0.0
45 0.0
46 0.0
47 0.0
48 0.0
49 0.0
50 0.0
51 0.0
52 0.0
53 0.0
54 0.0
55 0.0
56 0.0
57 0.0
58 0.0
59 0.0
 Sym=      1.7
 Ene=       0.4089
 Spin= Alpha
 Occup=    0.000000
1 0.0
2 0.0
3 0.0
4 0.0
5 0.0
6 0.0
7 0.0
8 0.0
9 0.0
10 0.0
11 0.0
12 0.0
13 0.0
14 0.0
15 0.0
16 0.0
17 0.0
18 0.0
19 0.0
20 0.0
21 0.0
22 0.0
23 0.0
24 0.0
25 0.0
26 0.0
27 -0.060436505433193
28 0.0
29 0.0
30 0.0
31 0.0
32 0.0
33 0.16595819892520
34 0.0
35 0.0
36 0.0
37 0.0
38 0.0
39 0.99750489506174
40 0.0
41 0.0
42 0.0
43 0.0
44 0.0
45 0.0
46 0.0
47 0.0
48 0.0
49 0.0
50 0.0
51 0.0
52 0.0
53 0.0
54 0.0
55 0.0
56 0.0
57 0.0
58 0.0
59 0.0
 Sym=      1.4
 Ene=       0.4089
 Spin= Alpha
 Occup=    0.000000
1 0.0
2 0.0
3 0.0
4 0.0
5 0.0
6 0.0
7 0.0
8 0.0
9 0.0
10 0.0
11 0.0
12 0.0
13 0.0
14 0.0
15 0.0
16 0.0
17 0.0
18 0.0
19 0.0
20 0.0
21 0.0
22 0.0
23 0.0
24 0.0
25 -0.060436505435500
26 0.0
27 0.0
28 0.0
29 0.0
30 0.0
31 0.16595819892513
32 0.0
33 0.0
34 0.0
35 0.0
36 0.0
37 0.99750489506352
38 0.0
39 0.0
40 0.0
41 0.0
42 0.0
43 0.0
44 0.0
45 0.0
46 0.0
47 0.0
48 0.0
49 0.0
50 0.0
51 0.0
52 0.0
53 0.0
54 0.0
55 0.0
56 0.0
57 0.0
58 0.0
59 0.0
 Sym=      5.1
 Ene=       0.4089
 Spin= Alpha
 Occup=    0.000000
1 0.000000000000001
2 0.000000000000005
3 0.000000000000008
4 -0.000000000000003
5 -0.000000000000008
6 0.000000000000002
7 0.0
8 0.0
9 0.0
10 0.0
11 0.0
12 0.0
13 0.0
14 0.0
15 0.0
16 0.0
17 0.0
18 0.0
19 0.0
20 0.0
21 0.0
22 -0.052339365213310
23 0.052339732832397
24 -0.000000367619087
25 0.0
26 0.0
27 0.0
28 0.14372351149316
29 -0.14372452097246
30 0.000001009479306
31 0.0
32 0.0
33 0.0
34 0.86386154573126
35 -0.86386761328656
36 0.000006067555301
37 0.0
38 0.0
39 0.0
40 0.0
41 0.0
42 0.0
43 0.0
44 0.0
45 0.0
46 0.0
47 0.0
48 0.0
49 0.0
50 0.0
51 0.0
52 0.0
53 0.0
54 0.0
55 0.0
56 0.0
57 0.0
58 0.0
59 0.0
 Sym=      6.1
 Ene=       0.4089
 Spin= Alpha
 Occup=    0.000000
1 0.000000000071617
2 0.000000000443434
3 0.000000000945140
4 -0.000000000196207
5 -0.000000001046690
6 0.000000000183100
7 0.0
8 0.0
9 0.0
10 0.0
11 0.0
12 0.0
13 0.0
14 0.0
15 0.0
16 0.0
17 0.0
18 0.0
19 0.0
20 0.0
21 0.0
22 0.030218571033893
23 0.030217934298957
24 -0.060436505332850
25 0.0
26 0.0
27 0.0
28 -0.082979973681246
29 -0.082978225211798
30 0.16595819889304
31 0.0
32 0.0
33 0.0
34 -0.49875770214604
35 -0.49874719283198
36 0.99750489497802
37 0.0
38 0.0
39 0.0
40 0.0
41 0.0
42 0.0
43 0.0
44 0.0
45 0.0
46 0.0
47 0.0
48 0.0
49 0.0
50 0.0
51 0.0
52 0.0
53 0.0
54 0.0
55 0.0
56 0.0
57 0.0
58 0.0
59 0.0
 Sym=      4.5
 Ene=       0.7102
 Spin= Alpha
 Occup=    0.000000
1 0.0
2 0.0
3 0.0
4 0.0
5 0.0
6 0.0
7 0.0
8 0.0
9 -0.47806667742044
10 0.0
11 0.0
12 -2.21580258718699
13 0.0
14 0.0
15 0.60161057174751
16 0.0
17 0.0
18 2.64995001096713
19 0.0
20 0.0
21 -0.77795621965449
22 0.0
23 0.0
24 0.0
25 0.0
26 0.0
27 0.0
28 0.0
29 0.0
30 0.0
31 0.0
32 0.0
33 0.0
34 0.0
35 0.0
36 0.0
37 0.0
38 0.0
39 0.0
40 0.0
41 0.0
42 -0.000000000147537
43 0.0
44 0.0
45 0.000000000098971
46 0.0
47 0.0
48 0.000000000098971
49 0.0
50 0.0
51 0.0
52 0.000000000093989
53 0.0
54 0.0
55 -0.000000000063049
56 0.0
57 0.0
58 -0.000000000063049
59 0.0
 Sym=      4.2
 Ene=       0.7102
 Spin= Alpha
 Occup=    0.000000
1 0.0
2 0.0
3 0.0
4 0.0
5 0.0
6 0.0
7 -0.47806667742170
8 0.0
9 0.0
10 -2.21580258719022
11 0.0
12 0.0
13 0.60161057174971
14 0.0
15 0.0
16 2.64995001096765
17 0.0
18 0.0
19 -0.77795621965154
20 0.0
21 0.0
22 0.0
23 0.0
24 0.0
25 0.0
26 0.0
27 0.0
28 0.0
29 0.0
30 0.0
31 0.0
32 0.0
33 0.0
34 0.0
35 0.0
36 0.0
37 0.0
38 0.0
39 0.0
40 0.000000000050762
41 0.0
42 0.0
43 0.000000000026448
44 0.0
45 0.0
46 -0.000000000094552
47 0.0
48 0.0
49 0.0
50 -0.000000000125721
51 0.0
52 0.0
53 -0.000000000080089
54 0.0
55 0.0
56 0.000000000248762
57 0.0
58 0.0
59 0.0
 Sym=      4.3
 Ene=       0.7102
 Spin= Alpha
 Occup=    0.000000
1 0.0
2 0.0
3 0.0
4 0.0
5 0.0
6 0.0
7 0.0
8 -0.47806667742170
9 0.0
10 0.0
11 -2.21580258719023
12 0.0
13 0.0
14 0.60161057174971
15 0.0
16 0.0
17 2.64995001096764
18 0.0
19 0.0
20 -0.77795621965153
21 0.0
22 0.0
23 0.0
24 0.0
25 0.0
26 0.0
27 0.0
28 0.0
29 0.0
30 0.0
31 0.0
32 0.0
33 0.0
34 0.0
35 0.0
36 0.0
37 0.0
38 0.0
39 0.0
40 0.0
41 0.000000000050762
42 0.0
43 0.0
44 0.000000000026447
45 0.0
46 0.0
47 -0.000000000094552
48 0.0
49 0.0
50 0.0
51 -0.000000000125721
52 0.0
53 0.0
54 -0.000000000080089
55 0.0
56 0.0
57 0.000000000248762
58 0.0
59 0.0
 Sym=      7.1
 Ene=       1.0618
 Spin= Alpha
 Occup=    0.000000
1 -0.000000030565563
2 -0.000000205086413
3 -0.000000499655333
4 0.000000038420301
5 0.000000680634137
6 -0.000000192192904
7 0.0
8 0.0
9 0.0
10 0.0
11 0.0
12 0.0
13 0.0
14 0.0
15 0.0
16 0.0
17 0.0
18 0.0
19 0.0
20 0.0
21 0.0
22 -0.59636282389006
23 -0.59634844109401
24 1.19271126498407
25 0.0
26 0.0
27 0.0
28 -0.11857194099481
29 -0.11856908133291
30 0.23714102232773
31 0.0
32 0.0
33 0.0
34 0.49515362810313
35 0.49514168622251
36 -0.99029531432564
37 0.0
38 0.0
39 0.0
40 0.0
41 0.0
42 0.0
43 0.0
44 0.0
45 0.0
46 0.0
47 0.0
48 0.0
49 0.0
50 0.0
51 0.0
52 0.0
53 0.0
54 0.0
55 0.0
56 0.0
57 0.0
58 0.0
59 0.0
 Sym=      2.6
 Ene=       1.0618
 Spin= Alpha
 Occup=    0.000000
1 0.0
2 0.0
3 0.0
4 0.0
5 0.0
6 0.0
7 0.0
8 0.0
9 0.0
10 0.0
11 0.0
12 0.0
13 0.0
14 0.0
15 0.0
16 0.0
17 0.0
18 0.0
19 0.0
20 0.0
21 0.0
22 0.0
23 0.0
24 0.0
25 0.0
26 1.19271126508067
27 0.0
28 0.0
29 0.0
30 0.0
31 0.0
32 0.23714102227734
33 0.0
34 0.0
35 0.0
36 0.0
37 0.0
38 -0.99029531433487
39 0.0
40 0.0
41 0.0
42 0.0
43 0.0
44 0.0
45 0.0
46 0.0
47 0.0
48 0.0
49 0.0
50 0.0
51 0.0
52 0.0
53 0.0
54 0.0
55 0.0
56 0.0
57 0.0
58 0.0
59 0.0
 Sym=      2.7
 Ene=       1.0618
 Spin= Alpha
 Occup=    0.000000
1 0.0
2 0.0
3 0.0
4 0.0
5 0.0
6 0.0
7 0.0
8 0.0
9 0.0
10 0.0
11 0.0
12 0.0
13 0.0
14 0.0
15 0.0
16 0.0
17 0.0
18 0.0
19 0.0
20 0.0
21 0.0
22 0.0
23 0.0
24 0.0
25 0.0
26 0.0
27 1.19271126508067
28 0.0
29 0.0
30 0.0
31 0.0
32 0.0
33 0.23714102227734
34 0.0
35 0.0
36 0.0
37 0.0
38 0.0
39 -0.99029531433487
40 0.0
41 0.0
42 0.0
43 0.0
44 0.0
45 0.0
46 0.0
47 0.0
48 0.0
49 0.0
50 0.0
51 0.0
52 0.0
53 0.0
54 0.0
55 0.0
56 0.0
57 0.0
58 0.0
59 0.0
 Sym=      2.4
 Ene=       1.0618
 Spin= Alpha
 Occup=    0.000000
1 0.0
2 0.0
3 0.0
4 0.0
5 0.0
6 0.0
7 0.0
8 0.0
9 0.0
10 0.0
11 0.0
12 0.0
13 0.0
14 0.0
15 0.0
16 0.0
17 0.0
18 0.0
19 0.0
20 0.0
21 0.0
22 0.0
23 0.0
24 0.0
25 1.19271126508188
26 0.0
27 0.0
28 0.0
29 0.0
30 0.0
31 0.23714102227643
32 0.0
33 0.0
34 0.0
35 0.0
36 0.0
37 -0.99029531433381
38 0.0
39 0.0
40 0.0
41 0.0
42 0.0
43 0.0
44 0.0
45 0.0
46 0.0
47 0.0
48 0.0
49 0.0
50 0.0
51 0.0
52 0.0
53 0.0
54 0.0
55 0.0
56 0.0
57 0.0
58 0.0
59 0.0
 Sym=      8.1
 Ene=       1.0618
 Spin= Alpha
 Occup=    0.000000
1 -0.000000000000212
2 -0.000000000001423
3 -0.000000000003468
4 0.000000000000267
5 0.000000000004724
6 -0.000000000001334
7 0.0
8 0.0
9 0.0
10 0.0
11 0.0
12 0.0
13 0.0
14 0.0
15 0.0
16 0.0
17 0.0