[Molden Format]
[Molpro variables]
_NUMVAR=  890.0000000000000    
_AVOGAD= 0.6022136736000000E+24
_BOLTZ= 0.1380658000000000E-22
_CLIGHT=  29979245800.00000    
_EV= 0.3674932379085202E-01
_ENULL= 0.8854187817000000E-11
_KJOULE= 0.3808798324128737E-03
_KJOULE/MOL= 0.3808798324128737E-03
_CM= 0.4556335267302901E-05
_CM-1= 0.4556335267302901E-05
_DEB2SI= 0.3335641000000000E-29
_AMU2AU=  1822.888390000000    
_KCAL= 0.1593601117815568E-02
_KCAL/MOL= 0.1593601117815568E-02
_KELVIN= 0.3166811411060229E-05
_JOULE= 0.4359748200000000E-17
_HERTZ= 0.1519829846004524E-15
_HZ= 0.1519829846004524E-15
_JPCAL=  4.184000000000000    
_PLANCK= 0.6626075540000000E-33
_TOA= 0.5291772109200000    
_TOANG= 0.5291772109200000    
_TORAD= 0.1745329251994330E-01
_TOCM=  219474.6306700000    
_TODEBYE=  2.541580000000000    
_TOE= 0.4803242000000000E-09
_TOEV=  27.21138505000000    
_TOHERTZ=  6579683920729000.    
_TOHZ=  6579683920729000.    
_TOK=  315775.0400000000    
_TOKCAL=  627.5096000000000    
_TOKELVIN=  315775.0400000000    
_TOKJ=  2625.500000000000    
_TOKJOULE=  2625.500000000000    
_TOKG= 0.1660565586000000E-26
_ANG=  1.889726124565062    
_ANGSTROM=  1.889726124565062    
_RPAREF=  0.000000000000000    
_RPADISS=  0.000000000000000    
_IGNORE_UNDEF=  2.000000000000000    
_STRICTCHECK=  0.000000000000000    
_SEW_ONEEL=  0.000000000000000    
_CPPDONE=FALSE
_DKROLL_DONE=  0.000000000000000    
_FOCKDONE=TRUE
_GRADONE=FALSE
_HESSDONE=FALSE
_INTDONE=TRUE
_SCFDONE=TRUE
_MODUL_BLOCK=FALSE
_MODUL_CUDA=FALSE
_MODUL_SLATER=FALSE
_MODUL_MRCC=FALSE
_MODUL_NBO6=FALSE
_MODUL_NECI=TRUE
_MODUL_AIMS=TRUE
_MRCC_EXEC=
_FITC_AO_SAVED=FALSE
_FITC_MO_SAVED=FALSE
_SHARED_FS=TRUE
_LSTYP=SEWARD
_INTYP=INTS
_GEOMTYP=ZMAT
_GRADTYP=ALASKA
_DIRECT=FALSE
_DKHO= -1.000000000000000    
_SYNCM=  0.000000000000000    
_BASIS=USERDEF
_ZORIENT=  1.000000000000000    
_NELEC=  18.00000000000000    
!SPIN=  0.000000000000000    
_QSDSTEP=  0.000000000000000    
_QSDIRC=  0.000000000000000    
_PROGRAM=MULTI
_CPUSTEP=  1.509999999999998    
_SYSSTEP= 0.3800000000000001    
_WALLSTEP=  3.060000000000000    
!DFSCF=  0.000000000000000    
!SCSGRD=  0.000000000000000    
_BASINP=  610.0000000000000    
_CPUTOT=  34.33000000000000    
_DFTEXFAC=  1.000000000000000    
_DMX=  0.000000000000000    
_DMY=  0.000000000000000    
_DMZ=  0.000000000000000    
_DMX_SCF=  0.000000000000000    
_DMY_SCF=  0.000000000000000    
_DMZ_SCF=  0.000000000000000    
_EHOMO=-0.5912304329427889    
_ELUMO= 0.2005273170509937E-02
_EIGS= -118.6119553660961    
_ENERGY= -526.8134090072330    
_ENERGY_METHOD=MULTI
_ENERGY_BASIS=USERDEF
_ENUC=  0.000000000000000    
_GRADEXFAC=  9999.000000000000    
_GRADMETHOD=TRUE
_NMRMETHOD=  0.000000000000000    
_NMRMAGNET=  0.000000000000000    
!GRID_FREEZE= -1.000000000000000    
_ITERATIONS=  2.000000000000000    
_LASTNELEC=  8.000000000000000    
_LASTSPIN=  0.000000000000000    
_LASTSYM=  1.000000000000000    
_MPP_PROG=  1.000000000000000    
_MSNSTATES=  0.000000000000000    
_RS2PHASE=  0.000000000000000    
_NPROC_MPP=  31.00000000000000    
_NPROC_MPPX=  31.00000000000000    
_NPROC_SMP=  1.000000000000000    
_NUMSTEP=  0.000000000000000    
_ORBITAL=  2141.200000000000    
_PI=  3.141592653589793    
!MCACT=  9.000000000000000    
!MCCLOSED=  2.000000000000000    
!MCFREEZE=  0.000000000000000    
!MCMS2=  0.000000000000000    
!MCNEL=  8.000000000000000    
!MCNSTSYM=  5.000000000000000    
!MCSTATE=  1.000000000000000    
!MCSYM=  1.000000000000000    
!MCWEIGHT= 0.2325581395348837E-01
_SEIG_MIN= 0.4274084885205483E-03
_SEWPROP=TRUE
_STATUS=  1.000000000000000    
_SYSTOT= 0.9400000000000001    
_VERSION=  2015001.000000000    
_WALLTOT=  42.35000000000000    
_DATE=12-Nov-19
_LASTORB=MCSCF
_MACHINE= 64 bit mpp version
_OUTPUT=/global/cscratch1/sd/lucchese/molpro22191/molpro.xml
_PGROUP=D2h
_TIME=14:09:47
_LIBMOL=/global/common/cori/software/molpro/2015/molprop_2015_1_linux_x86_64_i8/lib/
_VIGRDC=  0.000000000000000    
!VIBCNT=  0.000000000000000    
!RGHFCNT=  0.000000000000000    
!SURFREC=  0.000000000000000    
!ROTREC=  0.000000000000000    
!POLYREC=  0.000000000000000    
!DIPREC=  0.000000000000000    
!DIP4DREC=  0.000000000000000    
!DIPROT=  0.000000000000000    
!DIP4DROT=  0.000000000000000    
!PTREC=  0.000000000000000    
!PT4DREC=  0.000000000000000    
!VSCFREC=  0.000000000000000    
!VCIREC=  0.000000000000000    
!PVCIREC=  0.000000000000000    
!VMP2REC=  0.000000000000000    
!VMCSCFREC=  0.000000000000000    
!VMRCIREC=  0.000000000000000    
!VIBSTATEREC=  0.000000000000000    
!VIBSTATECNT=  0.000000000000000    
!VIBINFO=  0.000000000000000    
!GAREC=  0.000000000000000    
!SCFORB=  21002.00000000000    
!MCORB=  21412.00000000000    
!NEWMOL= -1.000000000000000    
!NEWSYM= -1.000000000000000    
_SLFILES=slscratch
_NGSSTO=  9.000000000000000    
_SIN=SIN
_COS=COS
_TAN=TAN
_ACOS=ACOS
_ASIN=ASIN
_ATAN=ATAN
_COSH=COSH
_SINH=SINH
_TANH=TANH
_ABS=ABS
_MOD=MOD
_ERF=ERF
_REFC=REFC
_ERFC=ERFC
_HYPOT=HYPOT
_J0=J0
_J1=J1
_JN=JN
_GAMMA=GAMMA
_LGAMMA=LGAMMA
_Y0=Y0
_Y1=Y1
_YN=YN
_EXP=EXP
_LOG=LOG
_LOG10=LOG10
_SQRT=SQRT
_INT=INT
_NINT=NINT
_MAX=MAX
_MIN=MIN
_COSMO=  0.000000000000000    
_COSMOIT=  0.000000000000000    
_COSMOES=  0.000000000000000    
_COSMOEDS=  0.000000000000000    
_COSMOEC=  0.000000000000000    
_COSMOEDCORR=  0.000000000000000    
_FEPSI=  1.000000000000000    
_SL_IsMM=  0.000000000000000    
_SL_NSYM=  8.000000000000000    
_SL_System_BitSw=  0.000000000000000    
_SL_Unique_atoms=  0.000000000000000    
_SL_GRAD=  0.000000000000000    
_SL_MAXUPD_Hess=  5.000000000000000    
_SL_N_PRINT_COD=  5.000000000000000    
_SL_PRINT_CODES=  0.000000000000000    
_SL_BasType=  0.000000000000000    
_SL_Energy_Pred=  0.000000000000000    
_SL_New_Coords=  0.000000000000000    
_SL_Total_Nuclea=  0.000000000000000    
_SL_Highest_Mltp=  0.000000000000000    
_SL_Ref_Geom=  0.000000000000000    
_SL_Symmetry_ope=  1.000000000000000    
_SL_agrad=  0.000000000000000    
_SL_GrdMax=  0.000000000000000    
_SL_GrdNorm=  0.000000000000000    
_SL_GrdRMS=  0.000000000000000    
_SL_Hss_Q=  0.000000000000000    
_SL_Hss_X=  0.000000000000000    
_SL_BMxOld=  0.000000000000000    
_SL_KtB=  0.000000000000000    
_SL_TROld=  0.000000000000000    
_SL_No_of_Intern=  0.000000000000000    
_SL_Hess=  0.000000000000000    
_SL_K=  0.000000000000000    
!LATTICE= -1.000000000000000    
!NEWLATTICE=  0.000000000000000    
!LATGRAD_VAR=FALSE
!SEW_LATTICE=  1.000000000000000    
!LOCAL=  0.000000000000000    
!SAVEDOM= -1.000000000000000    
!RESTDOM= -1.000000000000000    
!SAVEDOM_HF= -1.000000000000000    
!RESTDOM_HF= -1.000000000000000    
!HESSREC=  0.000000000000000    
!FREQREC=  0.000000000000000    
!NMODREC=  0.000000000000000    
!GTASKS=  0.000000000000000    
!HTASKS=  0.000000000000000    
!SAVEDOM_EOM= -1.000000000000000    
!RESTDOM_EOM= -1.000000000000000    
!GRADSTATE= -1.000000000000000    
!THRCHG= 0.1000000000000000    
!DEBUG= -1.000000000000000    
!CFIT_CPHF=  0.000000000000000    
!RDOMAUX_CPHF=  3.000000000000000    
!THRAO_CPHF= 0.1000000000000000E-09
!THRMO_CPHF= 0.1000000000000000E-08
!THROV_CPHF= 0.1000000000000000E-11
!THRSW_CPHF= 0.1000000000000000E-09
!THRPROD_CPHF= 0.1000000000000000E-08
!THRAOPR_CPHF= 0.1000000000000000E-11
!CFIT_SCFGRD=  0.000000000000000    
!RDOMAUX_SCFGRD=  5.000000000000000    
!THRAO_SCFGRD= 0.1000000000000000E-09
!THRMO_SCFGRD= 0.1000000000000000E-08
!THROV_SCFGRD= 0.1000000000000000E-11
!THRSW_SCFGRD= 0.1000000000000000E-09
!THRPROD_SCFGRD= 0.1000000000000000E-08
!THRAOPR_SCFGRD= 0.1000000000000000E-11
!LOCFIT_SCF=  0.000000000000000    
!LOCFIT_MP2= -1.000000000000000    
_RIDOM=  0.000000000000000    
!CC2_METHOD=  0.000000000000000    
_BASIS2006=FALSE
_SVDDEL= -1.000000000000000    
_SVDDELA= -1.000000000000000    
_SVDDELP= -1.000000000000000    
_SVDDELF= -1.000000000000000    
_SVDDELS= -1.000000000000000    
_SVDDEL_ABS= -1.000000000000000    
_SVDDELA_ABS= -1.000000000000000    
_SVDDELP_ABS= -1.000000000000000    
_SVDDELF_ABS= -1.000000000000000    
_SVDDELS_ABS= -1.000000000000000    
_MAXBASIS=  0.000000000000000    
!OPT_CONICAL=  0.000000000000000    
!CLEARSP_JGRID=  0.000000000000000    
_GRDHYBR=  0.000000000000000    
_STATEGRAD=  1.000000000000000    
_4EXT_NDISKS=  1.000000000000000    
!ZMP=  0.000000000000000    
_MAXIT_ZMP=  500.0000000000000    
_MAXDIS_ZMP=  100.0000000000000    
_ACCU_ZMP=  14.00000000000000    
_SHIFTA_ZMP= -100.0000000000000    
!EMBEDFLAG=  1.000000000000000    
!EMBED=FALSE
!EMBED_F12=FALSE
!EMBEDNUC=  0.000000000000000    
_EMBEDENERGY=  0.000000000000000    
_KSPACETIME=  0.000000000000000    
_RSPACETIME=  0.000000000000000    
!EMBED_DFC=FALSE
!NUM_VOIDS=  0.000000000000000    
_IBODY=  0.000000000000000    
_EMBE_TOTAL=  0.000000000000000    
_EMBE_HF=  0.000000000000000    
_EMBE_CORR=  0.000000000000000    
!EMBED_PROJ=FALSE
!EMBED_TRUNC=  0.000000000000000    
!EMB_PROJ_ZMU=  1000000.000000000    
!CORRECTION=  0.000000000000000    
!CORRECTION_HF=  0.000000000000000    
!EMBED_ENERGY=  0.000000000000000    
!EMBED_NAXC=FALSE
!EMBED_AORB=  0.000000000000000    
!EMBED_NACORR=  0.000000000000000    
!EMBED_MP2=FALSE
!EMBED_TRUNC_PERTURBATION=FALSE
!EMBED_FROZEN=  0.000000000000000    
_CHANGE_BASIS=FALSE
_RESTORE_BASIS=FALSE
_FIX_EMBED_GUESS=FALSE
!EDFT=  0.000000000000000    
_IFASTLATGRAD=  0.000000000000000    
_SINDEX=  0.000000000000000    
_AVDOM_OSV=  0.000000000000000    
_AVDOM_PNO=  0.000000000000000    
_AVDOM_PAO=  0.000000000000000    
_AVDOM_LMO=  0.000000000000000    
_CC2OSV_FLAG=  0.000000000000000    
_TMADC2_FLAG=FALSE
_PROPADC2_FLAG=FALSE
_LEN_VirQ=  0.000000000000000    
_GRDCC2LR_FLAG=FALSE
_GRDADC2_FLAG=FALSE
_DMX_CC=  0.000000000000000    
_DMY_CC=  0.000000000000000    
_DMZ_CC=  0.000000000000000    
_DMX_NUC=  0.000000000000000    
_DMY_NUC=  0.000000000000000    
_DMZ_NUC=  0.000000000000000    
GX1=  0.000000000000000    
GY1=  0.000000000000000    
GZ1=  0.000000000000000    
_TRDMX=-0.5890025199381439    
_TRDMY=  0.000000000000000    
_TRDMZ=  0.000000000000000    
[Atoms] Angs
AR    1   18         0.0000000000        0.0000000000        0.0000000000
[GTO]
   1 0
 s   15  1.00
  0.5450000000D+06  0.4558277631D-04
  0.8164000000D+05  0.3541078160D-03
  0.1858000000D+05  0.1857969034D-02
  0.5261000000D+04  0.7768505963D-02
  0.1717000000D+04  0.2742318575D-01
  0.6199000000D+03  0.8238355718D-01
  0.2416000000D+03  0.2012298954D+00
  0.9979000000D+02  0.3567808146D+00
  0.4315000000D+02  0.3495628183D+00
  0.1914000000D+02  0.1182659385D+00
  0.7488000000D+01  0.5601897089D-02
  0.3205000000D+01  0.4834727487D-03
  0.1196000000D+01 -0.1480849230D-03
  0.5204000000D+00  0.2920248482D-04
  0.1954000000D+00 -0.2316038796D-04
 s   15  1.00
  0.5450000000D+06 -0.1295509574D-04
  0.8164000000D+05 -0.1004279670D-03
  0.1858000000D+05 -0.5295828259D-03
  0.5261000000D+04 -0.2213959272D-02
  0.1717000000D+04 -0.7968447381D-02
  0.6199000000D+03 -0.2458029192D-01
  0.2416000000D+03 -0.6577977838D-01
  0.9979000000D+02 -0.1379419547D+00
  0.4315000000D+02 -0.2016299337D+00
  0.1914000000D+02 -0.4128338643D-01
  0.7488000000D+01  0.4846798407D+00
  0.3205000000D+01  0.5792238096D+00
  0.1196000000D+01  0.8790827110D-01
  0.5204000000D+00 -0.7275527608D-02
  0.1954000000D+00  0.2328839234D-02
 s   15  1.00
  0.5450000000D+06  0.4049898515D-05
  0.8164000000D+05  0.3136908850D-04
  0.1858000000D+05  0.1656459393D-03
  0.5261000000D+04  0.6916617464D-03
  0.1717000000D+04  0.2497899084D-02
  0.6199000000D+03  0.7710737173D-02
  0.2416000000D+03  0.2087139235D-01
  0.9979000000D+02  0.4439648372D-01
  0.4315000000D+02  0.6802237506D-01
  0.1914000000D+02  0.1413499482D-01
  0.7488000000D+01 -0.2074889239D+00
  0.3205000000D+01 -0.4250448441D+00
  0.1196000000D+01  0.7048547415D-01
  0.5204000000D+00  0.7336267310D+00
  0.1954000000D+00  0.3960048548D+00
 s   15  1.00
  0.5450000000D+06  0.0000000000D+00
  0.8164000000D+05  0.0000000000D+00
  0.1858000000D+05  0.0000000000D+00
  0.5261000000D+04  0.0000000000D+00
  0.1717000000D+04  0.0000000000D+00
  0.6199000000D+03  0.0000000000D+00
  0.2416000000D+03  0.0000000000D+00
  0.9979000000D+02  0.0000000000D+00
  0.4315000000D+02  0.0000000000D+00
  0.1914000000D+02  0.0000000000D+00
  0.7488000000D+01  0.0000000000D+00
  0.3205000000D+01  0.0000000000D+00
  0.1196000000D+01  0.1000000000D+01
  0.5204000000D+00  0.0000000000D+00
  0.1954000000D+00  0.0000000000D+00
 s   15  1.00
  0.5450000000D+06  0.0000000000D+00
  0.8164000000D+05  0.0000000000D+00
  0.1858000000D+05  0.0000000000D+00
  0.5261000000D+04  0.0000000000D+00
  0.1717000000D+04  0.0000000000D+00
  0.6199000000D+03  0.0000000000D+00
  0.2416000000D+03  0.0000000000D+00
  0.9979000000D+02  0.0000000000D+00
  0.4315000000D+02  0.0000000000D+00
  0.1914000000D+02  0.0000000000D+00
  0.7488000000D+01  0.0000000000D+00
  0.3205000000D+01  0.0000000000D+00
  0.1196000000D+01  0.0000000000D+00
  0.5204000000D+00  0.0000000000D+00
  0.1954000000D+00  0.1000000000D+01
 s    1  1.00
  0.6850000000D-01  0.1000000000D+01
 s    1  1.00
  0.2462400000D-01  0.1000000000D+01
 s    1  1.00
  0.1125000000D-01  0.1000000000D+01
 s    1  1.00
  0.5858000000D-02  0.1000000000D+01
 s    1  1.00
  0.3346000000D-02  0.1000000000D+01
 s    1  1.00
  0.2048400000D-02  0.1000000000D+01
 p    9  1.00
  0.7618000000D+03  0.2369759122D-02
  0.1802000000D+03  0.1901989296D-01
  0.5750000000D+02  0.8808066738D-01
  0.2124000000D+02  0.2563769050D+00
  0.8388000000D+01  0.4387108375D+00
  0.3416000000D+01  0.3475688713D+00
  0.1206000000D+01  0.5667397901D-01
  0.4523000000D+00 -0.5238818060D-02
  0.1545000000D+00  0.1643759391D-02
 p    9  1.00
  0.7618000000D+03 -0.6672111063D-03
  0.1802000000D+03 -0.5327170849D-02
  0.5750000000D+02 -0.2554940407D-01
  0.2124000000D+02 -0.7571971206D-01
  0.8388000000D+01 -0.1411330225D+00
  0.3416000000D+01 -0.9327681486D-01
  0.1206000000D+01  0.2828720451D+00
  0.4523000000D+00  0.5624500896D+00
  0.1545000000D+00  0.3250590518D+00
 p    9  1.00
  0.7618000000D+03  0.0000000000D+00
  0.1802000000D+03  0.0000000000D+00
  0.5750000000D+02  0.0000000000D+00
  0.2124000000D+02  0.0000000000D+00
  0.8388000000D+01  0.0000000000D+00
  0.3416000000D+01  0.0000000000D+00
  0.1206000000D+01  0.1000000000D+01
  0.4523000000D+00  0.0000000000D+00
  0.1545000000D+00  0.0000000000D+00
 p    9  1.00
  0.7618000000D+03  0.0000000000D+00
  0.1802000000D+03  0.0000000000D+00
  0.5750000000D+02  0.0000000000D+00
  0.2124000000D+02  0.0000000000D+00
  0.8388000000D+01  0.0000000000D+00
  0.3416000000D+01  0.0000000000D+00
  0.1206000000D+01  0.0000000000D+00
  0.4523000000D+00  0.0000000000D+00
  0.1545000000D+00  0.1000000000D+01
 p    1  1.00
  0.4870000000D-01  0.1000000000D+01
 p    1  1.00
  0.1925000000D-01  0.1000000000D+01
 p    1  1.00
  0.9988000000D-02  0.1000000000D+01
 p    1  1.00
  0.5689000000D-02  0.1000000000D+01
 p    1  1.00
  0.3476000000D-02  0.1000000000D+01
 p    1  1.00
  0.2242000000D-02  0.1000000000D+01
 d    1  1.00
  0.4100000000D+00  0.1000000000D+01
 d    1  1.00
  0.1254000000D+01  0.1000000000D+01
 d    1  1.00
  0.1690000000D+00  0.1000000000D+01
 d    1  1.00
  0.6054000000D-01  0.1000000000D+01
 d    1  1.00
  0.2745000000D-01  0.1000000000D+01
 d    1  1.00
  0.1420000000D-01  0.1000000000D+01
 d    1  1.00
  0.8077000000D-02  0.1000000000D+01
 d    1  1.00
  0.4927000000D-02  0.1000000000D+01
 f    1  1.00
  0.8900000000D+00  0.1000000000D+01
 f    1  1.00
  0.4060000000D+00  0.1000000000D+01
 
 
[MO]
 Sym=      1.1
 Ene=    -119.2956
 Spin= Alpha
 Occup=    2.000000
1 1.00000196402902
2 0.000010717849335
3 0.000019992999801
4 -0.000006757397267
5 -0.000029727494670
6 0.000022848836063
7 -0.000021664341889
8 0.000025404033926
9 -0.000024794564429
10 0.000016150014024
11 -0.000004935423364
12 0.0
13 0.0
14 0.0
15 0.0
16 0.0
17 0.0
18 0.0
19 0.0
20 0.0
21 0.0
22 0.0
23 0.0
24 0.0
25 0.0
26 0.0
27 0.0
28 0.0
29 0.0
30 0.0
31 0.0
32 0.0
33 0.0
34 0.0
35 0.0
36 0.0
37 0.0
38 0.0
39 0.0
40 0.0
41 0.0
42 0.0
43 0.0
44 0.0
45 0.0
46 0.0
47 0.0
48 0.0
49 0.0
50 0.0
51 0.0
52 0.0
53 0.0
54 0.0
55 0.0
56 0.0
57 0.0
58 0.0
59 0.0
60 0.0
61 0.0
62 0.0
63 0.0
64 0.0
65 0.0
66 0.0
67 0.0
68 0.0
69 0.0
70 0.0
71 0.0
72 0.0
73 0.0
74 0.0
75 0.0
76 0.0
77 0.0
78 0.0
79 0.0
80 0.0
81 0.0
82 0.0
83 0.0
84 0.0
85 0.0
86 0.0
87 0.0
88 0.0
89 0.0
90 0.0
91 0.0
92 0.0
93 0.0
94 0.0
95 0.0
96 0.0
97 0.0
98 0.0
99 0.0
100 0.0
101 0.0
102 0.0
103 0.0
104 0.0
105 0.0
106 0.0
107 0.0
108 0.0
109 0.0
 Sym=      1.3
 Ene=     -10.1948
 Spin= Alpha
 Occup=    2.000000
1 0.0
2 0.0
3 0.0
4 0.0
5 0.0
6 0.0
7 0.0
8 0.0
9 0.0
10 0.0
11 0.0
12 0.0
13 0.99954659188599
14 0.0
15 0.0
16 -0.001372020600074
17 0.0
18 0.0
19 0.000703071238582
20 0.0
21 0.0
22 0.001806696984558
23 0.0
24 0.0
25 -0.002090843323734
26 0.0
27 0.0
28 0.002764934559011
29 0.0
30 0.0
31 -0.003720674015803
32 0.0
33 0.0
34 0.003720808865412
35 0.0
36 0.0
37 -0.002422987705486
38 0.0
39 0.0
40 0.000743295353066
41 0.0
42 0.0
43 0.0
44 0.0
45 0.0
46 0.0
47 0.0
48 0.0
49 0.0
50 0.0
51 0.0
52 0.0
53 0.0
54 0.0
55 0.0
56 0.0
57 0.0
58 0.0
59 0.0
60 0.0
61 0.0
62 0.0
63 0.0
64 0.0
65 0.0
66 0.0
67 0.0
68 0.0
69 0.0
70 0.0
71 0.0
72 0.0
73 0.0
74 0.0
75 0.0
76 0.0
77 0.0
78 0.0
79 0.0
80 0.0
81 0.0
82 0.0
83 0.0
84 0.0
85 0.0
86 0.0
87 0.0
88 0.0
89 0.0
90 0.0
91 0.0
92 0.0
93 0.0
94 0.0
95 0.0
96 0.0
97 0.0
98 0.0
99 0.0
100 0.0
101 0.0
102 0.0
103 0.0
104 0.0
105 0.0
106 0.0
107 0.0
108 0.0
109 0.0
 Sym=      1.2
 Ene=     -10.1948
 Spin= Alpha
 Occup=    2.000000
1 0.0
2 0.0
3 0.0
4 0.0
5 0.0
6 0.0
7 0.0
8 0.0
9 0.0
10 0.0
11 0.0
12 0.99954659188599
13 0.0
14 0.0
15 -0.001372020600064
16 0.0
17 0.0
18 0.000703071238575
19 0.0
20 0.0
21 0.001806696984550
22 0.0
23 0.0
24 -0.002090843323730
25 0.0
26 0.0
27 0.002764934559006
28 0.0
29 0.0
30 -0.003720674015795
31 0.0
32 0.0
33 0.003720808865405
34 0.0
35 0.0
36 -0.002422987705481
37 0.0
38 0.0
39 0.000743295353064
40 0.0
41 0.0
42 0.0
43 0.0
44 0.0
45 0.0
46 0.0
47 0.0
48 0.0
49 0.0
50 0.0
51 0.0
52 0.0
53 0.0
54 0.0
55 0.0
56 0.0
57 0.0
58 0.0
59 0.0
60 0.0
61 0.0
62 0.0
63 0.0
64 0.0
65 0.0
66 0.0
67 0.0
68 0.0
69 0.0
70 0.0
71 0.0
72 0.0
73 0.0
74 0.0
75 0.0
76 0.0
77 0.0
78 0.0
79 0.0
80 0.0
81 0.0
82 0.0
83 0.0
84 0.0
85 0.0
86 0.0
87 0.0
88 0.0
89 0.0
90 0.0
91 0.0
92 0.0
93 0.0
94 0.0
95 0.0
96 0.0
97 0.0
98 0.0
99 0.0
100 0.0
101 0.0
102 0.0
103 0.0
104 0.0
105 0.0
106 0.0
107 0.0
108 0.0
109 0.0
 Sym=      1.5
 Ene=     -10.1948
 Spin= Alpha
 Occup=    2.000000
1 0.0
2 0.0
3 0.0
4 0.0
5 0.0
6 0.0
7 0.0
8 0.0
9 0.0
10 0.0
11 0.0
12 0.0
13 0.0
14 0.99954659188565
15 0.0
16 0.0
17 -0.001372020600799
18 0.0
19 0.0
20 0.000703071239207
21 0.0
22 0.0
23 0.001806696984913
24 0.0
25 0.0
26 -0.002090843323816
27 0.0
28 0.0
29 0.002764934559115
30 0.0
31 0.0
32 -0.003720674015941
33 0.0
34 0.0
35 0.003720808865548
36 0.0
37 0.0
38 -0.002422987705576
39 0.0
40 0.0
41 0.000743295353094
42 0.0
43 0.0
44 0.0
45 0.0
46 0.0
47 0.0
48 0.0
49 0.0
50 0.0
51 0.0
52 0.0
53 0.0
54 0.0
55 0.0
56 0.0
57 0.0
58 0.0
59 0.0
60 0.0
61 0.0
62 0.0
63 0.0
64 0.0
65 0.0
66 0.0
67 0.0
68 0.0
69 0.0
70 0.0
71 0.0
72 0.0
73 0.0
74 0.0
75 0.0
76 0.0
77 0.0
78 0.0
79 0.0
80 0.0
81 0.0
82 0.0
83 0.0
84 0.0
85 0.0
86 0.0
87 0.0
88 0.0
89 0.0
90 0.0
91 0.0
92 0.0
93 0.0
94 0.0
95 0.0
96 0.0
97 0.0
98 0.0
99 0.0
100 0.0
101 0.0
102 0.0
103 0.0
104 0.0
105 0.0
106 0.0
107 0.0
108 0.0
109 0.0
 Sym=      2.1
 Ene=     -12.9425
 Spin= Alpha
 Occup=    2.000000
1 -0.000159757647912
2 0.99904970310229
3 -0.001580290908151
4 0.000561778913302
5 0.002375120496207
6 -0.001817942045434
7 0.001631769423985
8 -0.001885327900850
9 0.001830163184776
10 -0.001189347459852
11 0.000363068505999
12 0.0
13 0.0
14 0.0
15 0.0
16 0.0
17 0.0
18 0.0
19 0.0
20 0.0
21 0.0
22 0.0
23 0.0
24 0.0
25 0.0
26 0.0
27 0.0
28 0.0
29 0.0
30 0.0
31 0.0
32 0.0
33 0.0
34 0.0
35 0.0
36 0.0
37 0.0
38 0.0
39 0.0
40 0.0
41 0.0
42 0.0
43 0.0
44 0.0
45 0.0
46 0.0
47 0.0
48 0.0
49 0.0
50 0.0
51 0.0
52 0.0
53 0.0
54 0.0
55 0.0
56 0.0
57 0.0
58 0.0
59 0.0
60 0.0
61 0.0
62 0.0
63 0.0
64 0.0
65 0.0
66 0.0
67 0.0
68 0.0
69 0.0
70 0.0
71 0.0
72 0.0
73 0.0
74 0.0
75 0.0
76 0.0
77 0.0
78 0.0
79 0.0
80 0.0
81 0.0
82 0.0
83 0.0
84 0.0
85 0.0
86 0.0
87 0.0
88 0.0
89 0.0
90 0.0
91 0.0
92 0.0
93 0.0
94 0.0
95 0.0
96 0.0
97 0.0
98 0.0
99 0.0
100 0.0
101 0.0
102 0.0
103 0.0
104 0.0
105 0.0
106 0.0
107 0.0
108 0.0
109 0.0
 Sym=      3.1
 Ene=      -1.6891
 Spin= Alpha
 Occup=    2.000000
1 0.000070827490879
2 0.000453151918361
3 1.00088856296874
4 -0.000218524035675
5 0.000331866371554
6 -0.008132536876027
7 0.019773711195873
8 -0.024088139034832
9 0.023864053482925
10 -0.015669682082083
11 0.004811878406094
12 0.0
13 0.0
14 0.0
15 0.0
16 0.0
17 0.0
18 0.0
19 0.0
20 0.0
21 0.0
22 0.0
23 0.0
24 0.0
25 0.0
26 0.0
27 0.0
28 0.0
29 0.0
30 0.0
31 0.0
32 0.0
33 0.0
34 0.0
35 0.0
36 0.0
37 0.0
38 0.0
39 0.0
40 0.0
41 0.0
42 0.0
43 0.0
44 0.0
45 0.0
46 0.0
47 0.0
48 0.0
49 0.0
50 0.0
51 0.0
52 0.0
53 0.0
54 0.0
55 0.0
56 0.0
57 0.0
58 0.0
59 0.0
60 0.0
61 0.0
62 0.0
63 0.0
64 0.0
65 0.0
66 0.0
67 0.0
68 0.0
69 0.0
70 0.0
71 0.0
72 0.0
73 0.0
74 0.0
75 0.0
76 0.0
77 0.0
78 0.0
79 0.0
80 0.0
81 0.0
82 0.0
83 0.0
84 0.0
85 0.0
86 0.0
87 0.0
88 0.0
89 0.0
90 0.0
91 0.0
92 0.0
93 0.0
94 0.0
95 0.0
96 0.0
97 0.0
98 0.0
99 0.0
100 0.0
101 0.0
102 0.0
103 0.0
104 0.0
105 0.0
106 0.0
107 0.0
108 0.0
109 0.0
 Sym=      4.1
 Ene=      -0.0634
 Spin= Alpha
 Occup=    0.069767
1 -0.001778851949682
2 -0.024817987960135
3 -0.29619124263361
4 -0.015723557417453
5 -0.18278530099151
6 0.19897549365944
7 0.84860594561587
8 -0.001743839044285
9 0.25181999723138
10 -0.14756688095565
11 0.044636138435721
12 0.0
13 0.0
14 0.0
15 0.0
16 0.0
17 0.0
18 0.0
19 0.0
20 0.0
21 0.0
22 0.0
23 0.0
24 0.0
25 0.0
26 0.0
27 0.0
28 0.0
29 0.0
30 0.0
31 0.0
32 0.0
33 0.0
34 0.0
35 0.0
36 0.0
37 0.0
38 0.0
39 0.0
40 0.0
41 0.0
42 0.0
43 0.0
44 0.0
45 0.0
46 0.0
47 0.0
48 0.0
49 0.0
50 0.0
51 0.0
52 0.0
53 0.0
54 0.0
55 0.0
56 0.0
57 0.0
58 0.0
59 0.0
60 0.0
61 0.0
62 0.0
63 0.0
64 0.0
65 0.0
66 0.0
67 0.0
68 0.0
69 0.0
70 0.0
71 0.0
72 0.0
73 0.0
74 0.0
75 0.0
76 0.0
77 0.0
78 0.0
79 0.0
80 0.0
81 0.0
82 0.0
83 0.0
84 0.0
85 0.0
86 0.0
87 0.0
88 0.0
89 0.0
90 0.0
91 0.0
92 0.0
93 0.0
94 0.0
95 0.0
96 0.0
97 0.0
98 0.0
99 0.0
100 0.0
101 0.0
102 0.0
103 0.0
104 0.0
105 0.0
106 0.0
107 0.0
108 0.0
109 0.0
 Sym=      5.1
 Ene=      -0.0035
 Spin= Alpha
 Occup=    0.069767
1 -0.000492057394075
2 -0.007666317745741
3 -0.094115632650643
4 -0.005389622445764
5 -0.074521838884524
6 0.088842636915152
7 0.47528720170916
8 0.085095417591246
9 -0.31785694692202
10 0.40111305319666
11 -1.25810607577270
12 0.0
13 0.0
14 0.0
15 0.0
16 0.0
17 0.0
18 0.0
19 0.0
20 0.0
21 0.0
22 0.0
23 0.0
24 0.0
25 0.0
26 0.0
27 0.0
28 0.0
29 0.0
30 0.0
31 0.0
32 0.0
33 0.0
34 0.0
35 0.0
36 0.0
37 0.0
38 0.0
39 0.0
40 0.0
41 0.0
42 0.0
43 0.0
44 0.0
45 0.0
46 0.0
47 0.0
48 0.0
49 0.0
50 0.0
51 0.0
52 0.0
53 0.0
54 0.0
55 0.0
56 0.0
57 0.0
58 0.0
59 0.0
60 0.0
61 0.0
62 0.0
63 0.0
64 0.0
65 0.0
66 0.0
67 0.0
68 0.0
69 0.0
70 0.0
71 0.0
72 0.0
73 0.0
74 0.0
75 0.0
76 0.0
77 0.0
78 0.0
79 0.0
80 0.0
81 0.0
82 0.0
83 0.0
84 0.0
85 0.0
86 0.0
87 0.0
88 0.0
89 0.0
90 0.0
91 0.0
92 0.0
93 0.0
94 0.0
95 0.0
96 0.0
97 0.0
98 0.0
99 0.0
100 0.0
101 0.0
102 0.0
103 0.0
104 0.0
105 0.0
106 0.0
107 0.0
108 0.0
109 0.0
 Sym=      6.1
 Ene=       0.0050
 Spin= Alpha
 Occup=    0.069767
1 0.000776391205491
2 0.008580271237914
3 0.079922321457428
4 0.003636567329928
5 0.045526390191060
6 -0.016442056265410
7 -0.69162782668345
8 1.26964319751093
9 -4.69473684900605
10 9.78424528917205
11 -6.03426283609507
12 0.0
13 0.0
14 0.0
15 0.0
16 0.0
17 0.0
18 0.0
19 0.0
20 0.0
21 0.0
22 0.0
23 0.0
24 0.0
25 0.0
26 0.0
27 0.0
28 0.0
29 0.0
30 0.0
31 0.0
32 0.0
33 0.0
34 0.0
35 0.0
36 0.0
37 0.0
38 0.0
39 0.0
40 0.0
41 0.0
42 0.0
43 0.0
44 0.0
45 0.0
46 0.0
47 0.0
48 0.0
49 0.0
50 0.0
51 0.0
52 0.0
53 0.0
54 0.0
55 0.0
56 0.0
57 0.0
58 0.0
59 0.0
60 0.0
61 0.0
62 0.0
63 0.0
64 0.0
65 0.0
66 0.0
67 0.0
68 0.0
69 0.0
70 0.0
71 0.0
72 0.0
73 0.0
74 0.0
75 0.0
76 0.0
77 0.0
78 0.0
79 0.0
80 0.0
81 0.0
82 0.0
83 0.0
84 0.0
85 0.0
86 0.0
87 0.0
88 0.0
89 0.0
90 0.0
91 0.0
92 0.0
93 0.0
94 0.0
95 0.0
96 0.0
97 0.0
98 0.0
99 0.0
100 0.0
101 0.0
102 0.0
103 0.0
104 0.0
105 0.0
106 0.0
107 0.0
108 0.0
109 0.0
 Sym=     11.1
 Ene=       0.0257
 Spin= Alpha
 Occup=    0.069767
1 -0.000652695033077
2 -0.013090199213766
3 -0.17659713778456
4 -0.011078888972361
5 -0.17269054718272
6 0.23264219970665
7 1.43673879949026
8 0.37308992362298
9 -8.52528029716336
10 11.5611893739748
11 -4.83075046682209
12 0.0
13 0.0
14 0.0
15 0.0
16 0.0
17 0.0
18 0.0
19 0.0
20 0.0
21 0.0
22 0.0
23 0.0
24 0.0
25 0.0
26 0.0
27 0.0
28 0.0
29 0.0
30 0.0
31 0.0
32 0.0
33 0.0
34 0.0
35 0.0
36 0.0
37 0.0
38 0.0
39 0.0
40 0.0
41 0.0
42 0.0
43 0.0
44 0.0
45 0.0
46 0.0
47 0.0
48 0.0
49 0.0
50 0.0
51 0.0
52 0.0
53 0.0
54 0.0
55 0.0
56 0.0
57 0.0
58 0.0
59 0.0
60 0.0
61 0.0
62 0.0
63 0.0
64 0.0
65 0.0
66 0.0
67 0.0
68 0.0
69 0.0
70 0.0
71 0.0
72 0.0
73 0.0
74 0.0
75 0.0
76 0.0
77 0.0
78 0.0
79 0.0
80 0.0
81 0.0
82 0.0
83 0.0
84 0.0
85 0.0
86 0.0
87 0.0
88 0.0
89 0.0
90 0.0
91 0.0
92 0.0
93 0.0
94 0.0
95 0.0
96 0.0
97 0.0
98 0.0
99 0.0
100 0.0
101 0.0
102 0.0
103 0.0
104 0.0
105 0.0
106 0.0
107 0.0
108 0.0
109 0.0
 Sym=      7.1
 Ene=       0.0052
 Spin= Alpha
 Occup=    0.069767
1 0.0
2 0.0
3 0.0
4 0.0
5 0.0
6 0.0
7 0.0
8 0.0
9 0.0
10 0.0
11 0.0
12 0.0
13 0.0
14 0.0
15 0.0
16 0.0
17 0.0
18 0.0
19 0.0
20 0.0
21 0.0
22 0.0
23 0.0
24 0.0
25 0.0
26 0.0
27 0.0
28 0.0
29 0.0
30 0.0
31 0.0
32 0.0
33 0.0
34 0.0
35 0.0
36 0.0
37 0.0
38 0.0
39 0.0
40 0.0
41 0.0
42 0.008581811917692
43 -0.008581811917692
44 0.0
45 0.0
46 0.0
47 0.0
48 0.006162378866940
49 -0.006162378866940
50 0.0
51 0.0
52 0.0
53 0.0
54 0.011449103547126
55 -0.011449103547126
56 0.0
57 0.0
58 0.0
59 0.0
60 0.049296357196044
61 -0.049296357196044
62 0.0
63 0.0
64 0.0
65 0.0
66 0.020166426328163
67 -0.020166426328163
68 0.0
69 0.0
70 0.0
71 0.0
72 0.30291127636791
73 -0.30291127636791
74 0.0
75 0.0
76 0.0
77 0.0
78 -0.17748305406064
79 0.17748305406064
80 0.0
81 0.0
82 0.0
83 0.0
84 0.79505318250349
85 -0.79505318250349
86 0.0
87 0.0
88 0.0
89 0.0
90 0.0
91 0.0
92 0.0
93 0.0
94 0.0
95 0.0
96 0.0
97 0.0
98 0.0
99 0.0
100 0.0
101 0.0
102 0.0
103 0.0
104 0.0
105 0.0
106 0.0
107 0.0
108 0.0
109 0.0
 Sym=     10.1
 Ene=       0.0237
 Spin= Alpha
 Occup=    0.069767
1 0.0
2 0.0
3 0.0
4 0.0
5 0.0
6 0.0
7 0.0
8 0.0
9 0.0
10 0.0
11 0.0
12 0.0
13 0.0
14 0.0
15 0.0
16 0.0
17 0.0
18 0.0
19 0.0
20 0.0
21 0.0
22 0.0
23 0.0
24 0.0
25 0.0
26 0.0
27 0.0
28 0.0
29 0.0
30 0.0
31 0.0
32 0.0
33 0.0
34 0.0
35 0.0
36 0.0
37 0.0
38 0.0
39 0.0
40 0.0
41 0.0
42 -0.018356475292539
43 -0.018356475292539
44 0.036712950585078
45 0.0
46 0.0
47 0.0
48 -0.015264673156119
49 -0.015264673156119
50 0.030529346312238
51 0.0
52 0.0
53 0.0
54 -0.036785648119004
55 -0.036785648119004
56 0.073571296238008
57 0.0
58 0.0
59 0.0
60 -0.087194559854011
61 -0.087194559854011
62 0.17438911970802
63 0.0
64 0.0
65 0.0
66 -0.23568304086788
67 -0.23568304086788
68 0.47136608173575
69 0.0
70 0.0
71 0.0
72 -0.098222130177405
73 -0.098222130177405
74 0.19644426035481
75 0.0
76 0.0
77 0.0
78 -0.33558537750352
79 -0.33558537750352
80 0.67117075500703
81 0.0
82 0.0
83 0.0
84 0.57417557327803
85 0.57417557327803
86 -1.14835114655607
87 0.0
88 0.0
89 0.0
90 0.0
91 0.0
92 0.0
93 0.0
94 0.0
95 0.0
96 0.0
97 0.0
98 0.0
99 0.0
100 0.0
101 0.0
102 0.0
103 0.0
104 0.0
105 0.0
106 0.0
107 0.0
108 0.0
109 0.0
 Sym=      8.1
 Ene=       0.0052
 Spin= Alpha
 Occup=    0.069767
1 0.0
2 0.0
3 0.0
4 0.0
5 0.0
6 0.0
7 0.0
8 0.0
9 0.0
10 0.0
11 0.0
12 0.0
13 0.0
14 0.0
15 0.0
16 0.0
17 0.0
18 0.0
19 0.0
20 0.0
21 0.0
22 0.0
23 0.0
24 0.0
25 0.0
26 0.0
27 0.0
28 0.0
29 0.0
30 0.0
31 0.0
32 0.0
33 0.0
34 0.0
35 0.0
36 0.0
37 0.0
38 0.0
39 0.0
40 0.0
41 0.0
42 -0.004954711325611
43 -0.004954711325611
44 0.009909422651223
45 0.0
46 0.0
47 0.0
48 -0.003557851264071
49 -0.003557851264071
50 0.007115702528142
51 0.0
52 0.0
53 0.0
54 -0.006610144095162
55 -0.006610144095162
56 0.013220288190323
57 0.0
58 0.0
59 0.0
60 -0.028461261813700
61 -0.028461261813700
62 0.056922523627400
63 0.0
64 0.0
65 0.0
66 -0.011643109548100
67 -0.011643109548100
68 0.023286219096201
69 0.0
70 0.0
71 0.0
72 -0.17488586710698
73 -0.17488586710698
74 0.34977173421396
75 0.0
76 0.0
77 0.0
78 0.10246982182947
79 0.10246982182947
80 -0.20493964365894
81 0.0
82 0.0
83 0.0
84 -0.45902412626267
85 -0.45902412626267
86 0.91804825252534
87 0.0
88 0.0
89 0.0
90 0.0
91 0.0
92 0.0
93 0.0
94 0.0
95 0.0
96 0.0
97 0.0
98 0.0
99 0.0
100 0.0
101 0.0
102 0.0
103 0.0
104 0.0
105 0.0
106 0.0
107 0.0
108 0.0
109 0.0
 Sym=      9.1
 Ene=       0.0237
 Spin= Alpha
 Occup=    0.069767
1 0.0
2 0.0
3 0.0
4 0.0
5 0.0
6 0.0
7 0.0
8 0.0
9 0.0
10 0.0
11 0.0
12 0.0
13 0.0
14 0.0
15 0.0
16 0.0
17 0.0
18 0.0
19 0.0
20 0.0
21 0.0
22 0.0
23 0.0
24 0.0
25 0.0
26 0.0
27 0.0
28 0.0
29 0.0
30 0.0
31 0.0
32 0.0
33 0.0
34 0.0
35 0.0
36 0.0
37 0.0
38 0.0
39 0.0
40 0.0
41 0.0
42 0.031794346793370
43 -0.031794346793370
44 0.0
45 0.0
46 0.0
47 0.0
48 0.026439189292087
49 -0.026439189292087
50 0.0
51 0.0
52 0.0
53 0.0
54 0.063714613201231
55 -0.063714613201231
56 0.0
57 0.0
58 0.0
59 0.0
60 0.15102539436159
61 -0.15102539436159
62 0.0
63 0.0
64 0.0
65 0.0
66 0.40821504136919
67 -0.40821504136919
68 0.0
69 0.0
70 0.0
71 0.0
72 0.17012560922132
73 -0.17012560922132
74 0.0
75 0.0
76 0.0
77 0.0
78 0.58125109052725
79 -0.58125109052725
80 0.0
81 0.0
82 0.0
83 0.0
84 -0.99450134151571
85 0.99450134151571
86 0.0
87 0.0
88 0.0
89 0.0
90 0.0
91 0.0
92 0.0
93 0.0
94 0.0
95 0.0
96 0.0
97 0.0
98 0.0
99 0.0
100 0.0
101 0.0
102 0.0
103 0.0
104 0.0
105 0.0
106 0.0
107 0.0
108 0.0
109 0.0
 Sym=      2.2
 Ene=      -0.9201
 Spin= Alpha
 Occup=    1.674419
1 0.0
2 0.0
3 0.0
4 0.0
5 0.0
6 0.0
7 0.0
8 0.0
9 0.0
10 0.0
11 0.0