[Molden Format]
[Molpro variables]
_NUMVAR=  888.0000000000000    
_AVOGAD= 0.6022136736000000E+24
_BOLTZ= 0.1380658000000000E-22
_CLIGHT=  29979245800.00000    
_EV= 0.3674932379085202E-01
_ENULL= 0.8854187817000000E-11
_KJOULE= 0.3808798324128737E-03
_KJOULE/MOL= 0.3808798324128737E-03
_CM= 0.4556335267302901E-05
_CM-1= 0.4556335267302901E-05
_DEB2SI= 0.3335641000000000E-29
_AMU2AU=  1822.888390000000    
_KCAL= 0.1593601117815568E-02
_KCAL/MOL= 0.1593601117815568E-02
_KELVIN= 0.3166811411060229E-05
_JOULE= 0.4359748200000000E-17
_HERTZ= 0.1519829846004524E-15
_HZ= 0.1519829846004524E-15
_JPCAL=  4.184000000000000    
_PLANCK= 0.6626075540000000E-33
_TOA= 0.5291772109200000    
_TOANG= 0.5291772109200000    
_TORAD= 0.1745329251994330E-01
_TOCM=  219474.6306700000    
_TODEBYE=  2.541580000000000    
_TOE= 0.4803242000000000E-09
_TOEV=  27.21138505000000    
_TOHERTZ=  6579683920729000.    
_TOHZ=  6579683920729000.    
_TOK=  315775.0400000000    
_TOKCAL=  627.5096000000000    
_TOKELVIN=  315775.0400000000    
_TOKJ=  2625.500000000000    
_TOKJOULE=  2625.500000000000    
_TOKG= 0.1660565586000000E-26
_ANG=  1.889726124565062    
_ANGSTROM=  1.889726124565062    
_RPAREF=  0.000000000000000    
_RPADISS=  0.000000000000000    
_IGNORE_UNDEF=  2.000000000000000    
_STRICTCHECK=  0.000000000000000    
_SEW_ONEEL=  0.000000000000000    
_CPPDONE=FALSE
_DKROLL_DONE=  0.000000000000000    
_FOCKDONE=  0.000000000000000    
_GRADONE=FALSE
_HESSDONE=FALSE
_INTDONE=TRUE
_SCFDONE=TRUE
_MODUL_BLOCK=FALSE
_MODUL_CUDA=FALSE
_MODUL_SLATER=FALSE
_MODUL_MRCC=FALSE
_MODUL_NBO6=FALSE
_MODUL_NECI=TRUE
_MODUL_AIMS=TRUE
_MRCC_EXEC=
_FITC_AO_SAVED=FALSE
_FITC_MO_SAVED=FALSE
_SHARED_FS=TRUE
_LSTYP=SEWARD
_INTYP=INTS
_GEOMTYP=ZMAT
_GRADTYP=ALASKA
_DIRECT=FALSE
_DKHO= -1.000000000000000    
_SYNCM=  0.000000000000000    
_BASIS=AUG-CC-PVTZ
_ZORIENT=  1.000000000000000    
_NELEC=  4.000000000000000    
!SPIN=  0.000000000000000    
_QSDSTEP=  0.000000000000000    
_QSDIRC=  0.000000000000000    
_PROGRAM=CI
_CPUSTEP= 0.9800000000000004    
_SYSSTEP= 0.4000000000000004E-01
_WALLSTEP=  1.600000000000000    
!DFMP2=  0.000000000000000    
!DFSCF=  0.000000000000000    
!SCSGRD=  0.000000000000000    
_BASINP=  610.0000000000000    
_CPUTOT=  4.180000000000000    
_DFTEXFAC=  1.000000000000000    
_DMX=  0.000000000000000    
_DMY=  0.000000000000000    
_DMZ=  0.000000000000000    
_DMX_SCF=  0.000000000000000    
_DMY_SCF=  0.000000000000000    
_DMZ_SCF=  0.000000000000000    
_EHOMO=-0.3092776349775161    
_ELUMO= 0.1788482435364610E-01
_EIGS= -4.732681379398042    
_ENERGD= -14.61857242470083    
_ENERGD0= -14.61857242470083    
_ENERGD1= -14.61857242470083    
_ENERGD2= -14.61857242470083    
_ENERGP= -14.61857242470083    
_ENERGP0= -14.61857242470083    
_ENERGP1= -14.61857242470083    
_ENERGP2= -14.61857242470083    
_ENERGR= -14.61644505896392    
_ENERGY= -14.61857242470083    
_ENERGY_METHOD=CI
_ENERGY_BASIS=aug-cc-pVTZ
_ENUC=  0.000000000000000    
_GRADEXFAC=  9999.000000000000    
_GRADMETHOD=FALSE
_NMRMETHOD=  0.000000000000000    
_NMRMAGNET=  0.000000000000000    
!GRID_FREEZE= -1.000000000000000    
_ITERATIONS=  4.000000000000000    
_LASTNELEC=  2.000000000000000    
_LASTSPIN=  0.000000000000000    
_LASTSYM=  1.000000000000000    
_MPP_PROG=  1.000000000000000    
_MSNSTATES=  0.000000000000000    
_RS2PHASE=  0.000000000000000    
_NPROC_MPP=  30.00000000000000    
_NPROC_MPPX=  30.00000000000000    
_NPROC_SMP=  1.000000000000000    
_NUMSTEP=  0.000000000000000    
_ORBITAL=  2140.200000000000    
_PI=  3.141592653589793    
!MCACT=  1.000000000000000    
!MCCLOSED=  1.000000000000000    
!MCFREEZE=  0.000000000000000    
!MCMS2=  0.000000000000000    
!MCNEL=  2.000000000000000    
!MCNSTSYM=  1.000000000000000    
!MCSTATE=  1.000000000000000    
!MCSYM=  1.000000000000000    
!MCWEIGHT=  1.000000000000000    
_SEIG_MIN= 0.7819883415736353E-02
_SEWPROP=TRUE
_STATUS=  1.000000000000000    
_SYSTOT= 0.9000000000000000    
_VERSION=  2015001.000000000    
_WALLTOT=  7.290000000000000    
_DATE=14-Mar-20
_LASTORB=MCSCF
_MACHINE= 64 bit mpp version
_OUTPUT=/global/cscratch1/sd/rbello/Quantum_Chem/Atomic/molpro.xml
_PGROUP=D2h
_TIME=12:10:54
_LIBMOL=/global/common/cori/software/molpro/2015/molprop_2015_1_linux_x86_64_i8/lib/
_VIGRDC=  0.000000000000000    
!VIBCNT=  0.000000000000000    
!RGHFCNT=  0.000000000000000    
!SURFREC=  0.000000000000000    
!ROTREC=  0.000000000000000    
!POLYREC=  0.000000000000000    
!DIPREC=  0.000000000000000    
!DIP4DREC=  0.000000000000000    
!DIPROT=  0.000000000000000    
!DIP4DROT=  0.000000000000000    
!PTREC=  0.000000000000000    
!PT4DREC=  0.000000000000000    
!VSCFREC=  0.000000000000000    
!VCIREC=  0.000000000000000    
!PVCIREC=  0.000000000000000    
!VMP2REC=  0.000000000000000    
!VMCSCFREC=  0.000000000000000    
!VMRCIREC=  0.000000000000000    
!VIBSTATEREC=  0.000000000000000    
!VIBSTATECNT=  0.000000000000000    
!VIBINFO=  0.000000000000000    
!GAREC=  0.000000000000000    
!SCFORB=  21002.00000000000    
!MCORB=  21402.00000000000    
!CIOCC=  2.000000000000000    
!CICORE=  1.000000000000000    
!CICLOS=  1.000000000000000    
!CIISTSYM=  1.000000000000000    
!CIISTMS2=  0.000000000000000    
!CIISTNEL=  2.000000000000000    
!NEWMOL= -1.000000000000000    
!NEWSYM= -1.000000000000000    
_SLFILES=slscratch
_NGSSTO=  9.000000000000000    
_SIN=SIN
_COS=COS
_TAN=TAN
_ACOS=ACOS
_ASIN=ASIN
_ATAN=ATAN
_COSH=COSH
_SINH=SINH
_TANH=TANH
_ABS=ABS
_MOD=MOD
_ERF=ERF
_REFC=REFC
_ERFC=ERFC
_HYPOT=HYPOT
_J0=J0
_J1=J1
_JN=JN
_GAMMA=GAMMA
_LGAMMA=LGAMMA
_Y0=Y0
_Y1=Y1
_YN=YN
_EXP=EXP
_LOG=LOG
_LOG10=LOG10
_SQRT=SQRT
_INT=INT
_NINT=NINT
_MAX=MAX
_MIN=MIN
_COSMO=  0.000000000000000    
_COSMOIT=  0.000000000000000    
_COSMOES=  0.000000000000000    
_COSMOEDS=  0.000000000000000    
_COSMOEC=  0.000000000000000    
_COSMOEDCORR=  0.000000000000000    
_FEPSI=  1.000000000000000    
_SL_IsMM=  0.000000000000000    
_SL_NSYM=  8.000000000000000    
_SL_System_BitSw=  0.000000000000000    
_SL_Unique_atoms=  0.000000000000000    
_SL_GRAD=  0.000000000000000    
_SL_MAXUPD_Hess=  5.000000000000000    
_SL_N_PRINT_COD=  5.000000000000000    
_SL_PRINT_CODES=  0.000000000000000    
_SL_BasType=  0.000000000000000    
_SL_Energy_Pred=  0.000000000000000    
_SL_New_Coords=  0.000000000000000    
_SL_Total_Nuclea=  0.000000000000000    
_SL_Highest_Mltp=  0.000000000000000    
_SL_Ref_Geom=  0.000000000000000    
_SL_Symmetry_ope=  1.000000000000000    
_SL_agrad=  0.000000000000000    
_SL_GrdMax=  0.000000000000000    
_SL_GrdNorm=  0.000000000000000    
_SL_GrdRMS=  0.000000000000000    
_SL_Hss_Q=  0.000000000000000    
_SL_Hss_X=  0.000000000000000    
_SL_BMxOld=  0.000000000000000    
_SL_KtB=  0.000000000000000    
_SL_TROld=  0.000000000000000    
_SL_No_of_Intern=  0.000000000000000    
_SL_Hess=  0.000000000000000    
_SL_K=  0.000000000000000    
!LATTICE= -1.000000000000000    
!NEWLATTICE=  0.000000000000000    
!LATGRAD_VAR=FALSE
!SEW_LATTICE=  1.000000000000000    
!LOCAL=  0.000000000000000    
!SAVEDOM= -1.000000000000000    
!RESTDOM= -1.000000000000000    
!SAVEDOM_HF= -1.000000000000000    
!RESTDOM_HF= -1.000000000000000    
!HESSREC=  0.000000000000000    
!FREQREC=  0.000000000000000    
!NMODREC=  0.000000000000000    
!GTASKS=  0.000000000000000    
!HTASKS=  0.000000000000000    
!SAVEDOM_EOM= -1.000000000000000    
!RESTDOM_EOM= -1.000000000000000    
!GRADSTATE= -1.000000000000000    
!THRCHG= 0.1000000000000000    
!DEBUG= -1.000000000000000    
!CFIT_CPHF=  0.000000000000000    
!RDOMAUX_CPHF=  3.000000000000000    
!THRAO_CPHF= 0.1000000000000000E-09
!THRMO_CPHF= 0.1000000000000000E-08
!THROV_CPHF= 0.1000000000000000E-11
!THRSW_CPHF= 0.1000000000000000E-09
!THRPROD_CPHF= 0.1000000000000000E-08
!THRAOPR_CPHF= 0.1000000000000000E-11
!CFIT_SCFGRD=  0.000000000000000    
!RDOMAUX_SCFGRD=  5.000000000000000    
!THRAO_SCFGRD= 0.1000000000000000E-09
!THRMO_SCFGRD= 0.1000000000000000E-08
!THROV_SCFGRD= 0.1000000000000000E-11
!THRSW_SCFGRD= 0.1000000000000000E-09
!THRPROD_SCFGRD= 0.1000000000000000E-08
!THRAOPR_SCFGRD= 0.1000000000000000E-11
!LOCFIT_SCF=  0.000000000000000    
!LOCFIT_MP2= -1.000000000000000    
_RIDOM=  0.000000000000000    
!CC2_METHOD=  0.000000000000000    
_BASIS2006=FALSE
_SVDDEL= -1.000000000000000    
_SVDDELA= -1.000000000000000    
_SVDDELP= -1.000000000000000    
_SVDDELF= -1.000000000000000    
_SVDDELS= -1.000000000000000    
_SVDDEL_ABS= -1.000000000000000    
_SVDDELA_ABS= -1.000000000000000    
_SVDDELP_ABS= -1.000000000000000    
_SVDDELF_ABS= -1.000000000000000    
_SVDDELS_ABS= -1.000000000000000    
_MAXBASIS=  0.000000000000000    
!OPT_CONICAL=  0.000000000000000    
!CLEARSP_JGRID=  0.000000000000000    
_GRDHYBR=  0.000000000000000    
_STATEGRAD=  1.000000000000000    
_4EXT_NDISKS=  1.000000000000000    
_C0= 0.9979704866549974    
_C0R= 0.9977602504506730    
!ZMP=  0.000000000000000    
_MAXIT_ZMP=  500.0000000000000    
_MAXDIS_ZMP=  100.0000000000000    
_ACCU_ZMP=  14.00000000000000    
_SHIFTA_ZMP= -100.0000000000000    
!EMBEDFLAG=  1.000000000000000    
!EMBED=FALSE
!EMBED_F12=FALSE
!EMBEDNUC=  0.000000000000000    
_EMBEDENERGY=  0.000000000000000    
_KSPACETIME=  0.000000000000000    
_RSPACETIME=  0.000000000000000    
!EMBED_DFC=FALSE
!NUM_VOIDS=  0.000000000000000    
_IBODY=  0.000000000000000    
_EMBE_TOTAL=  0.000000000000000    
_EMBE_HF=  0.000000000000000    
_EMBE_CORR=  0.000000000000000    
!EMBED_PROJ=FALSE
!EMBED_TRUNC=  0.000000000000000    
!EMB_PROJ_ZMU=  1000000.000000000    
!CORRECTION=  0.000000000000000    
!CORRECTION_HF=  0.000000000000000    
!EMBED_ENERGY=  0.000000000000000    
!EMBED_NAXC=FALSE
!EMBED_AORB=  0.000000000000000    
!EMBED_NACORR=  0.000000000000000    
!EMBED_MP2=FALSE
!EMBED_TRUNC_PERTURBATION=FALSE
!EMBED_FROZEN=  0.000000000000000    
_CHANGE_BASIS=FALSE
_RESTORE_BASIS=FALSE
_FIX_EMBED_GUESS=FALSE
!EDFT=  0.000000000000000    
_IFASTLATGRAD=  0.000000000000000    
_SINDEX=  0.000000000000000    
_AVDOM_OSV=  0.000000000000000    
_AVDOM_PNO=  0.000000000000000    
_AVDOM_PAO=  0.000000000000000    
_AVDOM_LMO=  0.000000000000000    
_CC2OSV_FLAG=  0.000000000000000    
_TMADC2_FLAG=FALSE
_PROPADC2_FLAG=FALSE
_LEN_VirQ=  0.000000000000000    
_GRDCC2LR_FLAG=FALSE
_GRDADC2_FLAG=FALSE
_DMX_CC=  0.000000000000000    
_DMY_CC=  0.000000000000000    
_DMZ_CC=  0.000000000000000    
_DMX_NUC=  0.000000000000000    
_DMY_NUC=  0.000000000000000    
_DMZ_NUC=  0.000000000000000    
GX1=  0.000000000000000    
GY1=  0.000000000000000    
GZ1=  0.000000000000000    
E= -14.61857242470083    
[Atoms] Angs
BE    1    4         0.0000000000        0.0000000000        0.0000000000
[GTO]
   1 0
 s   11  1.00
  0.6863000000D+04  0.2359999036D-03
  0.1030000000D+04  0.1825999254D-02
  0.2347000000D+03  0.9451996140D-02
  0.6656000000D+02  0.3795698450D-01
  0.2169000000D+02  0.1199649510D+00
  0.7734000000D+01  0.2821618848D+00
  0.2916000000D+01  0.4274038255D+00
  0.1130000000D+01  0.2662778913D+00
  0.2577000000D+00  0.1819299257D-01
  0.1101000000D+00 -0.7274997029D-02
  0.4409000000D-01  0.1902999223D-02
 s   11  1.00
  0.6863000000D+04 -0.4299999627D-04
  0.1030000000D+04 -0.3329999712D-03
  0.2347000000D+03 -0.1735999850D-02
  0.6656000000D+02 -0.7011999393D-02
  0.2169000000D+02 -0.2312599800D-01
  0.7734000000D+01 -0.5813799496D-01
  0.2916000000D+01 -0.1145559901D+00
  0.1130000000D+01 -0.1359079882D+00
  0.2577000000D+00  0.2280259802D+00
  0.1101000000D+00  0.5774409500D+00
  0.4409000000D-01  0.3178729725D+00
 s   11  1.00
  0.6863000000D+04  0.0000000000D+00
  0.1030000000D+04  0.0000000000D+00
  0.2347000000D+03  0.0000000000D+00
  0.6656000000D+02  0.0000000000D+00
  0.2169000000D+02  0.0000000000D+00
  0.7734000000D+01  0.0000000000D+00
  0.2916000000D+01  0.0000000000D+00
  0.1130000000D+01  0.0000000000D+00
  0.2577000000D+00  0.1000000000D+01
  0.1101000000D+00  0.0000000000D+00
  0.4409000000D-01  0.0000000000D+00
 s   11  1.00
  0.6863000000D+04  0.0000000000D+00
  0.1030000000D+04  0.0000000000D+00
  0.2347000000D+03  0.0000000000D+00
  0.6656000000D+02  0.0000000000D+00
  0.2169000000D+02  0.0000000000D+00
  0.7734000000D+01  0.0000000000D+00
  0.2916000000D+01  0.0000000000D+00
  0.1130000000D+01  0.0000000000D+00
  0.2577000000D+00  0.0000000000D+00
  0.1101000000D+00  0.0000000000D+00
  0.4409000000D-01  0.1000000000D+01
 s    1  1.00
  0.1470000000D-01  0.1000000000D+01
 p    5  1.00
  0.7436000000D+01  0.1073599695D-01
  0.1577000000D+01  0.6285398212D-01
  0.4352000000D+00  0.2481799294D+00
  0.1438000000D+00  0.5236988510D+00
  0.4994000000D-01  0.3534248995D+00
 p    5  1.00
  0.7436000000D+01  0.0000000000D+00
  0.1577000000D+01  0.0000000000D+00
  0.4352000000D+00  0.0000000000D+00
  0.1438000000D+00  0.1000000000D+01
  0.4994000000D-01  0.0000000000D+00
 p    5  1.00
  0.7436000000D+01  0.0000000000D+00
  0.1577000000D+01  0.0000000000D+00
  0.4352000000D+00  0.0000000000D+00
  0.1438000000D+00  0.0000000000D+00
  0.4994000000D-01  0.1000000000D+01
 p    1  1.00
  0.9300000000D-02  0.1000000000D+01
 d    1  1.00
  0.3493000000D+00  0.1000000000D+01
 d    1  1.00
  0.1724000000D+00  0.1000000000D+01
 d    1  1.00
  0.5880000000D-01  0.1000000000D+01
 f    1  1.00
  0.3423000000D+00  0.1000000000D+01
 f    1  1.00
  0.1188000000D+00  0.1000000000D+01
 
 
[MO]
 Sym=      1.1
 Ene=       0.0000
 Spin= Alpha
 Occup=    2.000000
1 0.99910285047869
2 -0.015001867489204
3 0.001190044751969
4 0.002391261043652
5 -0.000606832605116
6 0.0
7 0.0
8 0.0
9 0.0
10 0.0
11 0.0
12 0.0
13 0.0
14 0.0
15 0.0
16 0.0
17 0.0
18 -0.000000000000000
19 -0.000000000000000
20 0.000000000000000
21 0.0
22 0.0
23 0.0
24 0.000000000000000
25 0.000000000000000
26 -0.000000000000000
27 0.0
28 0.0
29 0.0
30 -0.000000000000000
31 -0.000000000000000
32 0.000000000000000
33 0.0
34 0.0
35 0.0
36 0.0
37 0.0
38 0.0
39 0.0
40 0.0
41 0.0
42 0.0
43 0.0
44 0.0
45 0.0
46 0.0
47 0.0
48 0.0
49 0.0
50 0.0
51 0.0
52 0.0
53 0.0
54 0.0
55 0.0
 Sym=      2.1
 Ene=       0.0000
 Spin= Alpha
 Occup=    1.817690
1 0.019770808450203
2 1.05257445853857
3 0.001940827129336
4 -0.057127215728251
5 -0.005193093931500
6 0.0
7 0.0
8 0.0
9 0.0
10 0.0
11 0.0
12 0.0
13 0.0
14 0.0
15 0.0
16 0.0
17 0.0
18 0.000000153363422
19 0.000000153363422
20 -0.000000306726843
21 0.0
22 0.0
23 0.0
24 -0.000000150877386
25 -0.000000150877386
26 0.000000301754771
27 0.0
28 0.0
29 0.0
30 0.000000013885686
31 0.000000013885686
32 -0.000000027771372
33 0.0
34 0.0
35 0.0
36 0.0
37 0.0
38 0.0
39 0.0
40 0.0
41 0.0
42 0.0
43 0.0
44 0.0
45 0.0
46 0.0
47 0.0
48 0.0
49 0.0
50 0.0
51 0.0
52 0.0
53 0.0
54 0.0
55 0.0
 Sym=      1.2
 Ene=       0.0000
 Spin= Alpha
 Occup=    0.059429
1 0.0
2 0.0
3 0.0
4 0.0
5 0.0
6 1.07485400960170
7 0.0
8 0.0
9 0.12493510397351
10 0.0
11 0.0
12 -0.26114157083466
13 0.0
14 0.0
15 0.000752003485095
16 0.0
17 0.0
18 0.0
19 0.0
20 0.0
21 0.0
22 0.0
23 0.0
24 0.0
25 0.0
26 0.0
27 0.0
28 0.0
29 0.0
30 0.0
31 0.0
32 0.0
33 0.0
34 0.0
35 0.0
36 -0.000000650231592
37 0.0
38 0.0
39 -0.000000290792401
40 0.0
41 0.0
42 0.000001163169625
43 0.0
44 0.0
45 0.0
46 0.000000348711203
47 0.0
48 0.0
49 0.000000155948330
50 0.0
51 0.0
52 -0.000000623793503
53 0.0
54 0.0
55 0.0
 Sym=      1.3
 Ene=       0.0000
 Spin= Alpha
 Occup=    0.059429
1 0.0
2 0.0
3 0.0
4 0.0
5 0.0
6 0.0
7 1.07485400960170
8 0.0
9 0.0
10 0.12493510397351
11 0.0
12 0.0
13 -0.26114157083465
14 0.0
15 0.0
16 0.000752003485094
17 0.0
18 0.0
19 0.0
20 0.0
21 0.0
22 0.0
23 0.0
24 0.0
25 0.0
26 0.0
27 0.0
28 0.0
29 0.0
30 0.0
31 0.0
32 0.0
33 0.0
34 0.0
35 0.0
36 0.0
37 -0.000000650231592
38 0.0
39 0.0
40 -0.000000290792401
41 0.0
42 0.0
43 0.000001163169626
44 0.0
45 0.0
46 0.0
47 0.000000348711203
48 0.0
49 0.0
50 0.000000155948330
51 0.0
52 0.0
53 -0.000000623793503
54 0.0
55 0.0
 Sym=      1.5
 Ene=       0.0000
 Spin= Alpha
 Occup=    0.059428
1 0.0
2 0.0
3 0.0
4 0.0
5 0.0
6 0.0
7 0.0
8 1.07486044592435
9 0.0
10 0.0
11 0.12493028138467
12 0.0
13 0.0
14 -0.26114419516068
15 0.0
16 0.0
17 0.000752993198337
18 0.0
19 0.0
20 0.0
21 0.0
22 0.0
23 0.0
24 0.0
25 0.0
26 0.0
27 0.0
28 0.0
29 0.0
30 0.0
31 0.0
32 0.0
33 0.0
34 0.0
35 0.0
36 0.0
37 0.0
38 0.000001019703859
39 0.0
40 0.0
41 -0.000000684038143
42 0.0
43 0.0
44 -0.000000684038143
45 0.0
46 0.0
47 0.0
48 -0.000000700203648
49 0.0
50 0.0
51 0.000000469710887
52 0.0
53 0.0
54 0.000000469710887
55 0.0
 Sym=      3.1
 Ene=       0.0000
 Spin= Alpha
 Occup=    0.003261
1 0.34272656382761
2 -0.21088424301829
3 -1.19376288767443
4 1.38522289674811
5 -0.15342863290260
6 0.0
7 0.0
8 0.0
9 0.0
10 0.0
11 0.0
12 0.0
13 0.0
14 0.0
15 0.0
16 0.0
17 0.0
18 0.000005068484120
19 0.000005068484121
20 -0.000010136968241
21 0.0
22 0.0
23 0.0
24 -0.000003622934250
25 -0.000003622934249
26 0.000007245868499
27 0.0
28 0.0
29 0.0
30 0.000001698540926
31 0.000001698540927
32 -0.000003397081853
33 0.0
34 0.0
35 0.0
36 0.0
37 0.0
38 0.0
39 0.0
40 0.0
41 0.0
42 0.0
43 0.0
44 0.0
45 0.0
46 0.0
47 0.0
48 0.0
49 0.0
50 0.0
51 0.0
52 0.0
53 0.0
54 0.0
55 0.0
 Sym=      4.1
 Ene=       0.0000
 Spin= Alpha
 Occup=    0.000117
1 0.000028736014943
2 0.000082625172706
3 -0.000048559982763
4 -0.000056118638584
5 0.000008678120545
6 0.0
7 0.0
8 0.0
9 0.0
10 0.0
11 0.0
12 0.0
13 0.0
14 0.0
15 0.0
16 0.0
17 0.0
18 -0.21660832034895
19 -0.21660832034785
20 0.43321664069679
21 0.0
22 0.0
23 0.0
24 -0.29329082927384
25 -0.29329082927236
26 0.58658165854620
27 0.0
28 0.0
29 0.0
30 -0.028040578611583
31 -0.028040578611440
32 0.056081157223023
33 0.0
34 0.0
35 0.0
36 0.0
37 0.0
38 0.0
39 0.0
40 0.0
41 0.0
42 0.0
43 0.0
44 0.0
45 0.0
46 0.0
47 0.0
48 0.0
49 0.0
50 0.0
51 0.0
52 0.0
53 0.0
54 0.0
55 0.0
 Sym=      5.1
 Ene=       0.0000
 Spin= Alpha
 Occup=    0.000117
1 0.000000000000011
2 0.000000000000033
3 -0.000000000000018
4 -0.000000000000025
5 0.000000000000005
6 0.0
7 0.0
8 0.0
9 0.0
10 0.0
11 0.0
12 0.0
13 0.0
14 0.0
15 0.0
16 0.0
17 0.0
18 0.37519329154217
19 -0.37519329154280
20 0.000000000000632
21 0.0
22 0.0
23 0.0
24 0.50801874018075
25 -0.50801874018160
26 0.000000000000858
27 0.0
28 0.0
29 0.0
30 0.048496287790145
31 -0.048496287790227
32 0.000000000000082
33 0.0
34 0.0
35 0.0
36 0.0
37 0.0
38 0.0
39 0.0
40 0.0
41 0.0
42 0.0
43 0.0
44 0.0
45 0.0
46 0.0
47 0.0
48 0.0
49 0.0
50 0.0
51 0.0
52 0.0
53 0.0
54 0.0
55 0.0
 Sym=      1.4
 Ene=       0.0000
 Spin= Alpha
 Occup=    0.000117
1 0.0
2 0.0
3 0.0
4 0.0
5 0.0
6 0.0
7 0.0
8 0.0
9 0.0
10 0.0
11 0.0
12 0.0
13 0.0
14 0.0
15 0.0
16 0.0
17 0.0
18 0.0
19 0.0
20 0.0
21 0.43323589568710
22 0.0
23 0.0
24 0.0
25 0.0
26 0.0
27 0.58660951283252
28 0.0
29 0.0
30 0.0
31 0.0
32 0.0
33 0.055998689642326
34 0.0
35 0.0
36 0.0
37 0.0
38 0.0
39 0.0
40 0.0
41 0.0
42 0.0
43 0.0
44 0.0
45 0.0
46 0.0
47 0.0
48 0.0
49 0.0
50 0.0
51 0.0
52 0.0
53 0.0
54 0.0
55 0.0
 Sym=      1.6
 Ene=       0.0000
 Spin= Alpha
 Occup=    0.000117
1 0.0
2 0.0
3 0.0
4 0.0
5 0.0
6 0.0
7 0.0
8 0.0
9 0.0
10 0.0
11 0.0
12 0.0
13 0.0
14 0.0
15 0.0
16 0.0
17 0.0
18 0.0
19 0.0
20 0.0
21 0.0
22 0.43322178807157
23 0.0
24 0.0
25 0.0
26 0.0
27 0.0
28 0.58658703795290
29 0.0
30 0.0
31 0.0
32 0.0
33 0.0
34 0.056062804667105
35 0.0
36 0.0
37 0.0
38 0.0
39 0.0
40 0.0
41 0.0
42 0.0
43 0.0
44 0.0
45 0.0
46 0.0
47 0.0
48 0.0
49 0.0
50 0.0
51 0.0
52 0.0
53 0.0
54 0.0
55 0.0
 Sym=      1.7
 Ene=       0.0000
 Spin= Alpha
 Occup=    0.000117
1 0.0
2 0.0
3 0.0
4 0.0
5 0.0
6 0.0
7 0.0
8 0.0
9 0.0
10 0.0
11 0.0
12 0.0
13 0.0
14 0.0
15 0.0
16 0.0
17 0.0
18 0.0
19 0.0
20 0.0
21 0.0
22 0.0
23 0.43322178807157
24 0.0
25 0.0
26 0.0
27 0.0
28 0.0
29 0.58658703795290
30 0.0
31 0.0
32 0.0
33 0.0
34 0.0
35 0.056062804667106
36 0.0
37 0.0
38 0.0
39 0.0
40 0.0
41 0.0
42 0.0
43 0.0
44 0.0
45 0.0
46 0.0
47 0.0
48 0.0
49 0.0
50 0.0
51 0.0
52 0.0
53 0.0
54 0.0
55 0.0
 Sym=      6.1
 Ene=       0.0000
 Spin= Alpha
 Occup=    0.000028
1 2.43796227599332
2 7.38039044288253
3 -3.96406201869377
4 -5.11502324985105
5 0.43151433132271
6 0.0
7 0.0
8 0.0
9 0.0
10 0.0
11 0.0
12 0.0
13 0.0
14 0.0
15 0.0
16 0.0
17 0.0
18 0.000078244759248
19 0.000078244759273
20 -0.000156489518522
21 0.0
22 0.0
23 0.0
24 -0.000096907851617
25 -0.000096907851630
26 0.000193815703247
27 0.0
28 0.0
29 0.0
30 0.000049786740227
31 0.000049786740221
32 -0.000099573480449
33 0.0
34 0.0
35 0.0
36 0.0
37 0.0
38 0.0
39 0.0
40 0.0
41 0.0
42 0.0
43 0.0
44 0.0
45 0.0
46 0.0
47 0.0
48 0.0
49 0.0
50 0.0
51 0.0
52 0.0
53 0.0
54 0.0
55 0.0
 Sym=      7.1
 Ene=       0.0000
 Spin= Alpha
 Occup=    0.000006
1 0.000000000000014
2 0.000000000000039
3 -0.000000000000026
4 -0.000000000000008
5 -0.000000000000018
6 0.0
7 0.0
8 0.0
9 0.0
10 0.0
11 0.0
12 0.0
13 0.0
14 0.0
15 0.0
16 0.0
17 0.0
18 1.39751930269413
19 -1.39751930269988
20 0.000000000005752
21 0.0
22 0.0
23 0.0
24 -1.30174379661888
25 1.30174379662424
26 -0.000000000005359
27 0.0
28 0.0
29 0.0
30 -0.048237613105870
31 0.048237613106064
32 -0.000000000000194
33 0.0
34 0.0
35 0.0
36 0.0
37 0.0
38 0.0
39 0.0
40 0.0
41 0.0
42 0.0
43 0.0
44 0.0
45 0.0
46 0.0
47 0.0
48 0.0
49 0.0
50 0.0
51 0.0
52 0.0
53 0.0
54 0.0
55 0.0
 Sym=      8.1
 Ene=       0.0000
 Spin= Alpha
 Occup=    0.000006
1 0.000170340405175
2 0.000526613210625
3 -0.000264125950727
4 -0.000435326582202
5 0.000113165487564
6 0.0
7 0.0
8 0.0
9 0.0
10 0.0
11 0.0
12 0.0
13 0.0
14 0.0
15 0.0
16 0.0
17 0.0
18 -0.80703696323200
19 -0.80703696322205
20 1.61407392645405
21 0.0
22 0.0
23 0.0
24 0.75186088547640
25 0.75186088546713
26 -1.50372177094353
27 0.0
28 0.0
29 0.0
30 0.027580232512580
31 0.027580232512236
32 -0.055160465024817
33 0.0
34 0.0
35 0.0
36 0.0
37 0.0
38 0.0
39 0.0
40 0.0
41 0.0
42 0.0
43 0.0
44 0.0
45 0.0
46 0.0
47 0.0
48 0.0
49 0.0
50 0.0
51 0.0
52 0.0
53 0.0
54 0.0
55 0.0
 Sym=      2.2
 Ene=       0.0000
 Spin= Alpha
 Occup=    0.000012
1 0.0
2 0.0
3 0.0
4 0.0
5 0.0
6 -0.000000004632726
7 0.0
8 0.0
9 0.000000005302097
10 0.0
11 0.0
12 -0.000000000943760
13 0.0
14 0.0
15 0.000000000315754
16 0.0
17 0.0
18 0.0
19 0.0
20 0.0
21 0.0
22 0.0
23 0.0
24 0.0
25 0.0
26 0.0
27 0.0
28 0.0
29 0.0
30 0.0
31 0.0
32 0.0
33 0.0
34 0.0
35 0.0
36 0.68089689023514
37 0.0
38 0.0
39 -0.91351894836784
40 0.0
41 0.0
42 -0.000000090972556
43 0.0
44 0.0
45 0.0
46 0.17527386889028
47 0.0
48 0.0
49 -0.23515454777452
50 0.0
51 0.0
52 -0.000000023536302
53 0.0
54 0.0
55 0.0
 Sym=      3.2
 Ene=       0.0000
 Spin= Alpha
 Occup=    0.000012
1 0.0
2 0.0
3 0.0
4 0.0
5 0.0
6 0.000026293241393
7 0.0
8 0.0
9 0.000175156933183
10 0.0
11 0.0
12 -0.000296240651264
13 0.0
14 0.0
15 0.000046614883093
16 0.0
17 0.0
18 0.0
19 0.0
20 0.0
21 0.0
22 0.0
23 0.0
24 0.0
25 0.0
26 0.0
27 0.0
28 0.0
29 0.0
30 0.0
31 0.0
32 0.0
33 0.0
34 0.0
35 0.0
36 -0.52751698880158
37 0.0
38 0.0
39 -0.23591288689699
40 0.0
41 0.0
42 0.94365119464478
43 0.0
44 0.0
45 0.0
46 -0.13562951382160
47 0.0
48 0.0
49 -0.060655392629510
50 0.0
51 0.0
52 0.24262148022572
53 0.0
54 0.0
55 0.0
 Sym=      4.2
 Ene=       0.0000
 Spin= Alpha
 Occup=    0.000008
1 0.0
2 0.0
3 0.0
4 0.0
5 0.0
6 -0.24548936885673
7 0.0
8 0.0
9 -0.86225173490328
10 0.0
11 0.0
12 1.62168711605788
13 0.0
14 0.0
15 -0.24124323442787
16 0.0
17 0.0
18 0.0
19 0.0
20 0.0
21 0.0
22 0.0
23 0.0
24 0.0
25 0.0
26 0.0
27 0.0
28 0.0
29 0.0
30 0.0
31 0.0
32 0.0
33 0.0
34 0.0
35 0.0
36 -0.000040355473272
37 0.0
38 0.0
39 -0.000018050446227
40 0.0
41 0.0
42 0.000072192995127
43 0.0
44 0.0
45 0.0
46 -0.000105890459144
47 0.0
48 0.0
49 -0.000047354007823
50 0.0
51 0.0
52 0.000189420966712
53 0.0
54 0.0
55 0.0
 Sym=      2.3
 Ene=       0.0000
 Spin= Alpha
 Occup=    0.000012
1 0.0
2 0.0
3 0.0
4 0.0
5 0.0
6 0.0
7 0.000000004632741
8 0.0
9 0.0
10 -0.000000005302101
11 0.0
12 0.0
13 0.000000000943743
14 0.0
15 0.0
16 -0.000000000315752
17 0.0
18 0.0
19 0.0
20 0.0
21 0.0
22 0.0
23 0.0
24 0.0
25 0.0
26 0.0
27 0.0
28 0.0
29 0.0
30 0.0
31 0.0
32 0.0
33 0.0
34 0.0
35 0.0
36 0.0
37 -0.68089689023519
38 0.0
39 0.0
40 0.91351894836781
41 0.0
42 0.0
43 0.000000090972649
44 0.0
45 0.0
46 0.0
47 -0.17527386889029
48 0.0
49 0.0
50 0.23515454777452
51 0.0
52 0.0
53 0.000000023536327
54 0.0
55 0.0
 Sym=      3.3
 Ene=       0.0000
 Spin= Alpha
 Occup=    0.000012
1 0.0
2 0.0
3 0.0
4 0.0
5 0.0
6 0.0
7 0.000026293241386
8 0.0
9 0.0
10 0.000175156933193
11 0.0
12 0.0
13 -0.000296240651270
14 0.0
15 0.0
16 0.000046614883094
17 0.0
18 0.0
19 0.0
20 0.0
21 0.0
22 0.0
23 0.0
24 0.0
25 0.0
26 0.0
27 0.0
28 0.0
29 0.0
30 0.0
31 0.0
32 0.0
33 0.0
34 0.0
35 0.0
36 0.0
37 -0.52751698880151
38 0.0
39 0.0
40 -0.23591288689708
41 0.0
42 0.0
43 0.94365119464478
44 0.0
45 0.0
46 0.0
47 -0.13562951382158
48 0.0
49 0.0
50 -0.060655392629532
51 0.0
52 0.0
53 0.24262148022572
54 0.0
55 0.0
 Sym=      4.3
 Ene=       0.0000
 Spin= Alpha
 Occup=    0.000008
1 0.0
2 0.0
3 0.0
4 0.0
5 0.0
6 0.0
7 -0.24548936885649
8 0.0
9 0.0
10 -0.86225173490348
11 0.0
12 0.0
13 1.62168711605782
14 0.0
15 0.0
16 -0.24124323442784
17 0.0
18 0.0
19 0.0
20 0.0
21 0.0
22 0.0
23 0.0
24 0.0
25 0.0
26 0.0
27 0.0
28 0.0
29 0.0
30 0.0
31 0.0
32 0.0
33 0.0
34 0.0
35 0.0
36 0.0
37 -0.000040355473279
38 0.0
39 0.0
40 -0.000018050446218
41 0.0
42 0.0
43 0.000072192995128
44 0.0
45 0.0
46 0.0
47 -0.000105890459148
48 0.0
49 0.0
50 -0.000047354007825
51 0.0
52 0.0
53 0.000189420966718
54 0.0
55 0.0
 Sym=      2.4
 Ene=       0.0000
 Spin= Alpha
 Occup=    0.000006
1 0.0
2 0.0
3 0.0
4 0.0
5 0.0
6 0.0
7 0.0
8 0.0
9 0.0
10 0.0
11 0.0
12 0.0
13 0.0
14 0.0
15 0.0
16 0.0
17 0.0
18 0.0
19 0.0
20 0.0
21 1.61371629262285
22 0.0
23 0.0
24 0.0
25 0.0
26 0.0
27 -1.50312426531310
28 0.0
29 0.0
30 0.0
31 0.0
32 0.0
33 -0.055699995626122
34 0.0
35 0.0
36 0.0
37 0.0
38 0.0
39 0.0
40 0.0
41 0.0
42 0.0
43 0.0
44 0.0
45 0.0
46 0.0
47 0.0
48 0.0
49 0.0
50 0.0
51 0.0
52 0.0
53 0.0
54 0.0
55 0.0
 Sym=      2.5
 Ene=       0.0000
 Spin= Alpha
 Occup=    0.000012
1 0.0
2 0.0
3 0.0
4 0.0
5 0.0
6 0.0
7 0.0
8 0.000000000000005
9 0.0
10 0.0
11 -0.000000000000001
12 0.0
13 0.0
14 -0.000000000000007
15 0.0
16 0.0
17 0.000000000000001
18 0.0
19 0.0
20 0.0
21 0.0
22 0.0
23 0.0
24 0.0
25 0.0
26 0.0
27 0.0
28 0.0
29 0.0
30 0.0
31 0.0
32 0.0
33 0.0
34 0.0
35 0.0
36 0.0
37 0.0
38 0.000000000000264
39 0.0
40 0.0
41 0.74597605452892
42 0.0
43 0.0
44 -0.74597605452927
45 0.0
46 0.0
47 0.0
48 0.000000000000069
49 0.0
50 0.0
51 0.19187396581474
52 0.0
53 0.0
54 -0.19187396581484
55 0.0
 Sym=      3.5
 Ene=       0.0000
 Spin= Alpha
 Occup=    0.000012
1 0.0
2 0.0
3 0.0
4 0.0
5 0.0
6 0.0
7 0.0
8 0.000047490071834
9 0.0
10 0.0
11 0.000175610568295
12 0.0
13 0.0
14 -0.000327908004940
15 0.0
16 0.0
17 0.000050898670020
18 0.0
19 0.0
20 0.0
21 0.0
22 0.0
23 0.0
24 0.0
25 0.0
26 0.0
27 0.0
28 0.0
29 0.0
30 0.0
31 0.0
32 0.0
33 0.0
34 0.0
35 0.0
36 0.0
37 0.0
38 0.86144772186669
39 0.0
40 0.0
41 -0.57787669954710
42 0.0
43 0.0
44 -0.57787669954664
45 0.0
46 0.0
47 0.0
48 0.22145943397083
49 0.0
50 0.0
51 -0.14855950458528
52 0.0
53 0.0
54 -0.14855950458516
55 0.0
 Sym=      4.5
 Ene=       0.0000
 Spin= Alpha
 Occup=    0.000008
1 0.0
2 0.0
3 0.0
4 0.0
5 0.0
6 0.0
7 0.0
8 -0.24590780936177
9 0.0
10 0.0
11 -0.86186277531478
12 0.0
13 0.0
14 1.62167966656883
15 0.0
16 0.0
17 -0.24101914551400
18 0.0
19 0.0
20 0.0
21 0.0
22 0.0
23 0.0
24 0.0
25 0.0
26 0.0
27 0.0
28 0.0
29 0.0
30 0.0
31 0.0
32 0.0
33 0.0
34 0.0
35 0.0
36 0.0
37 0.0
38 0.000069946885094
39 0.0
40 0.0
41 -0.000046921796963
42 0.0
43 0.0
44 -0.000046921796968
45 0.0
46 0.0
47 0.0
48 0.000192164155409
49 0.0
50 0.0
51 -0.000128907634299
52 0.0
53 0.0
54 -0.000128907634301
55 0.0
 Sym=      2.6
 Ene=       0.0000
 Spin= Alpha
 Occup=    0.000006
1 0.0
2 0.0
3 0.0
4 0.0
5 0.0
6 0.0
7 0.0
8 0.0
9 0.0
10 0.0
11 0.0
12 0.0
13 0.0
14 0.0
15 0.0
16 0.0
17 0.0
18 0.0
19 0.0
20 0.0
21 0.0
22 1.61398894880518
23 0.0
24 0.0
25 0.0
26 0.0
27 0.0
28 -1.50357959141656
29 0.0
30 0.0
31 0.0
32 0.0
33 0.0
34 -0.055288786302996
35 0.0
36 0.0
37 0.0
38 0.0
39 0.0
40 0.0
41 0.0
42 0.0
43 0.0
44 0.0
45 0.0
46 0.0
47 0.0
48 0.0
49 0.0
50 0.0
51 0.0
52 0.0
53 0.0
54 0.0
55 0.0
 Sym=      2.7
 Ene=       0.0000
 Spin= Alpha
 Occup=    0.000006
1 0.0
2 0.0
3 0.0
4 0.0
5 0.0
6 0.0
7 0.0
8 0.0
9 0.0
10 0.0
11 0.0
12 0.0
13 0.0
14 0.0
15 0.0
16 0.0
17 0.0
18 0.0
19 0.0
20 0.0
21 0.0
22 0.0
23 1.61398894880517
24 0.0
25 0.0
26 0.0
27 0.0
28 0.0
29 -1.50357959141655
30 0.0
31 0.0
32 0.0
33 0.0
34 0.0
35 -0.055288786302998
36 0.0
37 0.0
38 0.0
39 0.0
40 0.0
41 0.0
42 0.0
43 0.0
44 0.0
45 0.0
46 0.0
47 0.0
48 0.0
49 0.0
50 0.0
51 0.0
52 0.0
53 0.0
54 0.0
55 0.0
 Sym=      1.8
 Ene=       0.0000
 Spin= Alpha
 Occup=    0.000012
1 0.0
2 0.0
3 0.0
4 0.0
5 0.0
6 0.0
7 0.0
8 0.0
9 0.0
10 0.0
11 0.0
12 0.0
13 0.0
14 0.0
15 0.0
16 0.0
17 0.0
18 0.0
19 0.0
20 0.0
21 0.0
22 0.0
23 0.0
24 0.0
25 0.0
26 0.0
27 0.0
28 0.0
29 0.0
30 0.0
31 0.0
32 0.0
33 0.0
34 0.0
35 0.0
36 0.0
37 0.0
38 0.0
39 0.0
40 0.0
41 0.0
42 0.0
43 0.0
44 0.0
45 0.86137895172914
46 0.0
47 0.0
48 0.0
49 0.0
50 0.0
51 0.0
52 0.0
53 0.0
54 0.0
55 0.22155697170335
 Sym=      9.1
 Ene=       0.0000
 Spin= Alpha
 Occup=    0.000000
1 0.86357396682275
2 2.98144032622383
3 -1.04374648823643
4 -3.84044923637766
5 2.12997866707550
6 0.0
7 0.0
8 0.0
9 0.0
10 0.0
11 0.0
12 0.0
13 0.0
14 0.0
15 0.0
16 0.0
17 0.0
18 0.000026567963302
19 0.000026567962001
20 -0.000053135925303
21 0.0
22 0.0
23 0.0
24 -0.000016243758369
25 -0.000016243756001
26 0.000032487514369
27 0.0
28 0.0
29 0.0
30 -0.000014019924195
31 -0.000014019926210
32 0.000028039850405
33 0.0
34 0.0
35 0.0
36 0.0
37 0.0
38 0.0
39 0.0
40 0.0
41 0.0
42 0.0
43 0.0
44 0.0
45 0.0
46 0.0
47 0.0
48 0.0
49 0.0
50 0.0
51 0.0
52 0.0
53 0.0
54 0.0
55 0.0
 Sym=     10.1
 Ene=       0.0000
 Spin= Alpha
 Occup=    0.000000
1 0.000160454391396
2 0.000476105488475
3 -0.000268974403294
4 -0.000294680760297
5 -0.000008127184557
6 0.0
7 0.0
8 0.0
9 0.0
10 0.0
11 0.0
12 0.0
13 0.0
14 0.0
15 0.0
16 0.0
17 0.0
18 -0.44714167479214
19 -0.44714167479832
20 0.89428334959046
21 0.0
22 0.0
23 0.0
24 0.82195165707159
25 0.82195165708294
26 -1.64390331415453
27 0.0
28 0.0
29 0.0
30 -0.70889686608592