[Molden Format]
[Molpro variables]
_NUMVAR=  887.0000000000000    
_AVOGAD= 0.6022136736000000E+24
_BOLTZ= 0.1380658000000000E-22
_CLIGHT=  29979245800.00000    
_EV= 0.3674932379085202E-01
_ENULL= 0.8854187817000000E-11
_KJOULE= 0.3808798324128737E-03
_KJOULE/MOL= 0.3808798324128737E-03
_CM= 0.4556335267302901E-05
_CM-1= 0.4556335267302901E-05
_DEB2SI= 0.3335641000000000E-29
_AMU2AU=  1822.888390000000    
_KCAL= 0.1593601117815568E-02
_KCAL/MOL= 0.1593601117815568E-02
_KELVIN= 0.3166811411060229E-05
_JOULE= 0.4359748200000000E-17
_HERTZ= 0.1519829846004524E-15
_HZ= 0.1519829846004524E-15
_JPCAL=  4.184000000000000    
_PLANCK= 0.6626075540000000E-33
_TOA= 0.5291772109200000    
_TOANG= 0.5291772109200000    
_TORAD= 0.1745329251994330E-01
_TOCM=  219474.6306700000    
_TODEBYE=  2.541580000000000    
_TOE= 0.4803242000000000E-09
_TOEV=  27.21138505000000    
_TOHERTZ=  6579683920729000.    
_TOHZ=  6579683920729000.    
_TOK=  315775.0400000000    
_TOKCAL=  627.5096000000000    
_TOKELVIN=  315775.0400000000    
_TOKJ=  2625.500000000000    
_TOKJOULE=  2625.500000000000    
_TOKG= 0.1660565586000000E-26
_ANG=  1.889726124565062    
_ANGSTROM=  1.889726124565062    
_RPAREF=  0.000000000000000    
_RPADISS=  0.000000000000000    
_IGNORE_UNDEF=  2.000000000000000    
_STRICTCHECK=  0.000000000000000    
_SEW_ONEEL=  0.000000000000000    
_CPPDONE=FALSE
_DKROLL_DONE=  0.000000000000000    
_FOCKDONE=TRUE
_GRADONE=FALSE
_HESSDONE=FALSE
_INTDONE=TRUE
_SCFDONE=TRUE
_MODUL_BLOCK=FALSE
_MODUL_CUDA=FALSE
_MODUL_SLATER=FALSE
_MODUL_MRCC=FALSE
_MODUL_NBO6=FALSE
_MODUL_NECI=TRUE
_MODUL_AIMS=TRUE
_MRCC_EXEC=
_FITC_AO_SAVED=FALSE
_FITC_MO_SAVED=FALSE
_SHARED_FS=TRUE
_LSTYP=SEWARD
_INTYP=INTS
_GEOMTYP=ZMAT
_GRADTYP=ALASKA
_DIRECT=FALSE
_DKHO= -1.000000000000000    
_SYNCM=  0.000000000000000    
_BASIS=AUG-CC-PVTZ
_ZORIENT=  1.000000000000000    
_NELEC=  4.000000000000000    
!SPIN=  0.000000000000000    
_QSDSTEP=  0.000000000000000    
_QSDIRC=  0.000000000000000    
_PROGRAM=RHF-SCF
_CPUSTEP= 0.2599999999999998    
_SYSSTEP= 0.1000000000000001E-01
_WALLSTEP= 0.3500000000000000    
!DFSCF=  0.000000000000000    
!SCSGRD=  0.000000000000000    
_BASINP=  610.0000000000000    
_CPUTOT=  2.860000000000000    
_CPUSORT= 0.4699999999999998    
_SYSSORT= 0.1000000000000001E-01
_WALLSORT= 0.5500000007450581    
_DFTEXFAC=  1.000000000000000    
_DMX=  0.000000000000000    
_DMY=  0.000000000000000    
_DMZ=  0.000000000000000    
_DMX_SCF=  0.000000000000000    
_DMY_SCF=  0.000000000000000    
_DMZ_SCF=  0.000000000000000    
_EHOMO=-0.3092776349775161    
_ELUMO= 0.1788482435364610E-01
_EIGS= -4.732681379398042    
_ENERGY= -14.57287535670596    
_ENERGY_METHOD=RHF
_ENERGY_BASIS=aug-cc-pVTZ
_ENUC=  0.000000000000000    
_GRADEXFAC=  9999.000000000000    
_GRADMETHOD=  1.000000000000000    
_NMRMETHOD=  0.000000000000000    
_NMRMAGNET=  0.000000000000000    
!GRID_FREEZE= -1.000000000000000    
_ITERATIONS=  5.000000000000000    
_LASTNELEC=  4.000000000000000    
_LASTSPIN=  0.000000000000000    
_LASTSYM=  1.000000000000000    
_MPP_PROG=  1.000000000000000    
_MSNSTATES=  0.000000000000000    
_RS2PHASE=  0.000000000000000    
_NPROC_MPP=  30.00000000000000    
_NPROC_MPPX=  30.00000000000000    
_NPROC_SMP=  1.000000000000000    
_NUMSTEP=  0.000000000000000    
_ORBITAL=  2100.200000000000    
_PI=  3.141592653589793    
_SEIG_MIN= 0.7819883415736353E-02
_SEWPROP=TRUE
_STATUS=  1.000000000000000    
_SYSTOT= 0.7100000000000000    
_VERSION=  2015001.000000000    
_WALLTOT=  14.24000000000000    
_DATE=25-Mar-20
_LASTORB=RHF
_MACHINE= 64 bit mpp version
_OUTPUT=/global/cscratch1/sd/rbello/Quantum_Chem/Atomic/molpro.xml
_PGROUP=D2h
_TIME=17:05:03
_LIBMOL=/global/common/cori/software/molpro/2015/molprop_2015_1_linux_x86_64_i8/lib/
_VIGRDC=  0.000000000000000    
!VIBCNT=  0.000000000000000    
!RGHFCNT=  0.000000000000000    
!SURFREC=  0.000000000000000    
!ROTREC=  0.000000000000000    
!POLYREC=  0.000000000000000    
!DIPREC=  0.000000000000000    
!DIP4DREC=  0.000000000000000    
!DIPROT=  0.000000000000000    
!DIP4DROT=  0.000000000000000    
!PTREC=  0.000000000000000    
!PT4DREC=  0.000000000000000    
!VSCFREC=  0.000000000000000    
!VCIREC=  0.000000000000000    
!PVCIREC=  0.000000000000000    
!VMP2REC=  0.000000000000000    
!VMCSCFREC=  0.000000000000000    
!VMRCIREC=  0.000000000000000    
!VIBSTATEREC=  0.000000000000000    
!VIBSTATECNT=  0.000000000000000    
!VIBINFO=  0.000000000000000    
!GAREC=  0.000000000000000    
!SCFORB=  21002.00000000000    
!NEWMOL= -1.000000000000000    
!NEWSYM= -1.000000000000000    
_SLFILES=slscratch
_NGSSTO=  9.000000000000000    
_SIN=SIN
_COS=COS
_TAN=TAN
_ACOS=ACOS
_ASIN=ASIN
_ATAN=ATAN
_COSH=COSH
_SINH=SINH
_TANH=TANH
_ABS=ABS
_MOD=MOD
_ERF=ERF
_REFC=REFC
_ERFC=ERFC
_HYPOT=HYPOT
_J0=J0
_J1=J1
_JN=JN
_GAMMA=GAMMA
_LGAMMA=LGAMMA
_Y0=Y0
_Y1=Y1
_YN=YN
_EXP=EXP
_LOG=LOG
_LOG10=LOG10
_SQRT=SQRT
_INT=INT
_NINT=NINT
_MAX=MAX
_MIN=MIN
_COSMO=  0.000000000000000    
_COSMOIT=  0.000000000000000    
_COSMOES=  0.000000000000000    
_COSMOEDS=  0.000000000000000    
_COSMOEC=  0.000000000000000    
_COSMOEDCORR=  0.000000000000000    
_FEPSI=  1.000000000000000    
_SL_IsMM=  0.000000000000000    
_SL_NSYM=  8.000000000000000    
_SL_System_BitSw=  0.000000000000000    
_SL_Unique_atoms=  0.000000000000000    
_SL_GRAD=  0.000000000000000    
_SL_MAXUPD_Hess=  5.000000000000000    
_SL_N_PRINT_COD=  5.000000000000000    
_SL_PRINT_CODES=  0.000000000000000    
_SL_BasType=  0.000000000000000    
_SL_Energy_Pred=  0.000000000000000    
_SL_New_Coords=  0.000000000000000    
_SL_Total_Nuclea=  0.000000000000000    
_SL_Highest_Mltp=  0.000000000000000    
_SL_Ref_Geom=  0.000000000000000    
_SL_Symmetry_ope=  1.000000000000000    
_SL_agrad=  0.000000000000000    
_SL_GrdMax=  0.000000000000000    
_SL_GrdNorm=  0.000000000000000    
_SL_GrdRMS=  0.000000000000000    
_SL_Hss_Q=  0.000000000000000    
_SL_Hss_X=  0.000000000000000    
_SL_BMxOld=  0.000000000000000    
_SL_KtB=  0.000000000000000    
_SL_TROld=  0.000000000000000    
_SL_No_of_Intern=  0.000000000000000    
_SL_Hess=  0.000000000000000    
_SL_K=  0.000000000000000    
!LATTICE= -1.000000000000000    
!NEWLATTICE=  0.000000000000000    
!LATGRAD_VAR=FALSE
!SEW_LATTICE=  1.000000000000000    
!LOCAL=  0.000000000000000    
!SAVEDOM= -1.000000000000000    
!RESTDOM= -1.000000000000000    
!SAVEDOM_HF= -1.000000000000000    
!RESTDOM_HF= -1.000000000000000    
!HESSREC=  0.000000000000000    
!FREQREC=  0.000000000000000    
!NMODREC=  0.000000000000000    
!GTASKS=  0.000000000000000    
!HTASKS=  0.000000000000000    
!SAVEDOM_EOM= -1.000000000000000    
!RESTDOM_EOM= -1.000000000000000    
!GRADSTATE= -1.000000000000000    
!THRCHG= 0.1000000000000000    
!DEBUG= -1.000000000000000    
!CFIT_CPHF=  0.000000000000000    
!RDOMAUX_CPHF=  3.000000000000000    
!THRAO_CPHF= 0.1000000000000000E-09
!THRMO_CPHF= 0.1000000000000000E-08
!THROV_CPHF= 0.1000000000000000E-11
!THRSW_CPHF= 0.1000000000000000E-09
!THRPROD_CPHF= 0.1000000000000000E-08
!THRAOPR_CPHF= 0.1000000000000000E-11
!CFIT_SCFGRD=  0.000000000000000    
!RDOMAUX_SCFGRD=  5.000000000000000    
!THRAO_SCFGRD= 0.1000000000000000E-09
!THRMO_SCFGRD= 0.1000000000000000E-08
!THROV_SCFGRD= 0.1000000000000000E-11
!THRSW_SCFGRD= 0.1000000000000000E-09
!THRPROD_SCFGRD= 0.1000000000000000E-08
!THRAOPR_SCFGRD= 0.1000000000000000E-11
!LOCFIT_SCF=  0.000000000000000    
!LOCFIT_MP2= -1.000000000000000    
_RIDOM=  0.000000000000000    
!CC2_METHOD=  0.000000000000000    
_BASIS2006=FALSE
_SVDDEL= -1.000000000000000    
_SVDDELA= -1.000000000000000    
_SVDDELP= -1.000000000000000    
_SVDDELF= -1.000000000000000    
_SVDDELS= -1.000000000000000    
_SVDDEL_ABS= -1.000000000000000    
_SVDDELA_ABS= -1.000000000000000    
_SVDDELP_ABS= -1.000000000000000    
_SVDDELF_ABS= -1.000000000000000    
_SVDDELS_ABS= -1.000000000000000    
_MAXBASIS=  0.000000000000000    
!OPT_CONICAL=  0.000000000000000    
!CLEARSP_JGRID=  0.000000000000000    
_GRDHYBR=  0.000000000000000    
_STATEGRAD=  1.000000000000000    
_4EXT_NDISKS=  1.000000000000000    
!ZMP=  0.000000000000000    
_MAXIT_ZMP=  500.0000000000000    
_MAXDIS_ZMP=  100.0000000000000    
_ACCU_ZMP=  14.00000000000000    
_SHIFTA_ZMP= -100.0000000000000    
!EMBEDFLAG=  1.000000000000000    
!EMBED=FALSE
!EMBED_F12=FALSE
!EMBEDNUC=  0.000000000000000    
_EMBEDENERGY=  0.000000000000000    
_KSPACETIME=  0.000000000000000    
_RSPACETIME=  0.000000000000000    
!EMBED_DFC=FALSE
!NUM_VOIDS=  0.000000000000000    
_IBODY=  0.000000000000000    
_EMBE_TOTAL=  0.000000000000000    
_EMBE_HF=  0.000000000000000    
_EMBE_CORR=  0.000000000000000    
!EMBED_PROJ=FALSE
!EMBED_TRUNC=  0.000000000000000    
!EMB_PROJ_ZMU=  1000000.000000000    
!CORRECTION=  0.000000000000000    
!CORRECTION_HF=  0.000000000000000    
!EMBED_ENERGY=  0.000000000000000    
!EMBED_NAXC=FALSE
!EMBED_AORB=  0.000000000000000    
!EMBED_NACORR=  0.000000000000000    
!EMBED_MP2=FALSE
!EMBED_TRUNC_PERTURBATION=FALSE
!EMBED_FROZEN=  0.000000000000000    
_CHANGE_BASIS=FALSE
_RESTORE_BASIS=FALSE
_FIX_EMBED_GUESS=FALSE
!EDFT=  0.000000000000000    
_IFASTLATGRAD=  0.000000000000000    
_SINDEX=  0.000000000000000    
_AVDOM_OSV=  0.000000000000000    
_AVDOM_PNO=  0.000000000000000    
_AVDOM_PAO=  0.000000000000000    
_AVDOM_LMO=  0.000000000000000    
_CC2OSV_FLAG=  0.000000000000000    
_TMADC2_FLAG=FALSE
_PROPADC2_FLAG=FALSE
_LEN_VirQ=  0.000000000000000    
_GRDCC2LR_FLAG=FALSE
_GRDADC2_FLAG=FALSE
GX1=  0.000000000000000    
GY1=  0.000000000000000    
GZ1=  0.000000000000000    
[Atoms] Angs
BE    1    4         0.0000000000        0.0000000000        0.0000000000
[GTO]
   1 0
 s   11  1.00
  0.6863000000D+04  0.2359999036D-03
  0.1030000000D+04  0.1825999254D-02
  0.2347000000D+03  0.9451996140D-02
  0.6656000000D+02  0.3795698450D-01
  0.2169000000D+02  0.1199649510D+00
  0.7734000000D+01  0.2821618848D+00
  0.2916000000D+01  0.4274038255D+00
  0.1130000000D+01  0.2662778913D+00
  0.2577000000D+00  0.1819299257D-01
  0.1101000000D+00 -0.7274997029D-02
  0.4409000000D-01  0.1902999223D-02
 s   11  1.00
  0.6863000000D+04 -0.4299999627D-04
  0.1030000000D+04 -0.3329999712D-03
  0.2347000000D+03 -0.1735999850D-02
  0.6656000000D+02 -0.7011999393D-02
  0.2169000000D+02 -0.2312599800D-01
  0.7734000000D+01 -0.5813799496D-01
  0.2916000000D+01 -0.1145559901D+00
  0.1130000000D+01 -0.1359079882D+00
  0.2577000000D+00  0.2280259802D+00
  0.1101000000D+00  0.5774409500D+00
  0.4409000000D-01  0.3178729725D+00
 s   11  1.00
  0.6863000000D+04  0.0000000000D+00
  0.1030000000D+04  0.0000000000D+00
  0.2347000000D+03  0.0000000000D+00
  0.6656000000D+02  0.0000000000D+00
  0.2169000000D+02  0.0000000000D+00
  0.7734000000D+01  0.0000000000D+00
  0.2916000000D+01  0.0000000000D+00
  0.1130000000D+01  0.0000000000D+00
  0.2577000000D+00  0.1000000000D+01
  0.1101000000D+00  0.0000000000D+00
  0.4409000000D-01  0.0000000000D+00
 s   11  1.00
  0.6863000000D+04  0.0000000000D+00
  0.1030000000D+04  0.0000000000D+00
  0.2347000000D+03  0.0000000000D+00
  0.6656000000D+02  0.0000000000D+00
  0.2169000000D+02  0.0000000000D+00
  0.7734000000D+01  0.0000000000D+00
  0.2916000000D+01  0.0000000000D+00
  0.1130000000D+01  0.0000000000D+00
  0.2577000000D+00  0.0000000000D+00
  0.1101000000D+00  0.0000000000D+00
  0.4409000000D-01  0.1000000000D+01
 s    1  1.00
  0.1470000000D-01  0.1000000000D+01
 p    5  1.00
  0.7436000000D+01  0.1073599695D-01
  0.1577000000D+01  0.6285398212D-01
  0.4352000000D+00  0.2481799294D+00
  0.1438000000D+00  0.5236988510D+00
  0.4994000000D-01  0.3534248995D+00
 p    5  1.00
  0.7436000000D+01  0.0000000000D+00
  0.1577000000D+01  0.0000000000D+00
  0.4352000000D+00  0.0000000000D+00
  0.1438000000D+00  0.1000000000D+01
  0.4994000000D-01  0.0000000000D+00
 p    5  1.00
  0.7436000000D+01  0.0000000000D+00
  0.1577000000D+01  0.0000000000D+00
  0.4352000000D+00  0.0000000000D+00
  0.1438000000D+00  0.0000000000D+00
  0.4994000000D-01  0.1000000000D+01
 p    1  1.00
  0.9300000000D-02  0.1000000000D+01
 d    1  1.00
  0.3493000000D+00  0.1000000000D+01
 d    1  1.00
  0.1724000000D+00  0.1000000000D+01
 d    1  1.00
  0.5880000000D-01  0.1000000000D+01
 f    1  1.00
  0.3423000000D+00  0.1000000000D+01
 f    1  1.00
  0.1188000000D+00  0.1000000000D+01
 
 
[MO]
 Sym=      1.1
 Ene=      -4.7327
 Spin= Alpha
 Occup=    2.000000
1 0.99966636966190
2 -0.001156186910797
3 0.000415858004697
4 0.001373116644542
5 -0.000665285360297
6 0.0
7 0.0
8 0.0
9 0.0
10 0.0
11 0.0
12 0.0
13 0.0
14 0.0
15 0.0
16 0.0
17 0.0
18 -0.000000000000000
19 0.000000000000000
20 -0.000000000000000
21 0.0
22 0.0
23 0.0
24 0.000000000000000
25 -0.000000000000000
26 0.000000000000000
27 0.0
28 0.0
29 0.0
30 -0.000000000000000
31 0.000000000000000
32 -0.000000000000000
33 0.0
34 0.0
35 0.0
36 0.0
37 0.0
38 0.0
39 0.0
40 0.0
41 0.0
42 0.0
43 0.0
44 0.0
45 0.0
46 0.0
47 0.0
48 0.0
49 0.0
50 0.0
51 0.0
52 0.0
53 0.0
54 0.0
55 0.0
 Sym=      2.1
 Ene=      -0.3093
 Spin= Alpha
 Occup=    2.000000
1 0.000489858992324
2 1.00183357594697
3 -0.000375745568424
4 -0.003498305891045
5 0.002660951329901
6 0.0
7 0.0
8 0.0
9 0.0
10 0.0
11 0.0
12 0.0
13 0.0
14 0.0
15 0.0
16 0.0
17 0.0
18 0.000000000000000
19 0.000000000000000
20 -0.000000000000000
21 0.0
22 0.0
23 0.0
24 -0.000000000000000
25 -0.000000000000000
26 0.000000000000000
27 0.0
28 0.0
29 0.0
30 0.000000000000000
31 -0.000000000000000
32 -0.000000000000000
33 0.0
34 0.0
35 0.0
36 0.0
37 0.0
38 0.0
39 0.0
40 0.0
41 0.0
42 0.0
43 0.0
44 0.0
45 0.0
46 0.0
47 0.0
48 0.0
49 0.0
50 0.0
51 0.0
52 0.0
53 0.0
54 0.0
55 0.0
 Sym=      1.3
 Ene=       0.0179
 Spin= Alpha
 Occup=    0.000000
1 0.0
2 0.0
3 0.0
4 0.0
5 0.0
6 0.0
7 0.17495440249691
8 0.0
9 0.0
10 0.015781797913789
11 0.0
12 0.0
13 0.013488203330093
14 0.0
15 0.0
16 0.92803129845645
17 0.0
18 0.0
19 0.0
20 0.0
21 0.0
22 0.0
23 0.0
24 0.0
25 0.0
26 0.0
27 0.0
28 0.0
29 0.0
30 0.0
31 0.0
32 0.0
33 0.0
34 0.0
35 0.0
36 0.0
37 0.000000000000000
38 0.0
39 0.0
40 -0.000000000000000
41 0.0
42 0.0
43 0.000000000000000
44 0.0
45 0.0
46 0.0
47 0.000000000000000
48 0.0
49 0.0
50 -0.000000000000000
51 0.0
52 0.0
53 -0.000000000000000
54 0.0
55 0.0
 Sym=      1.2
 Ene=       0.0179
 Spin= Alpha
 Occup=    0.000000
1 0.0
2 0.0
3 0.0
4 0.0
5 0.0
6 0.17495440249691
7 0.0
8 0.0
9 0.015781797913789
10 0.0
11 0.0
12 0.013488203330093
13 0.0
14 0.0
15 0.92803129845645
16 0.0
17 0.0
18 0.0
19 0.0
20 0.0
21 0.0
22 0.0
23 0.0
24 0.0
25 0.0
26 0.0
27 0.0
28 0.0
29 0.0
30 0.0
31 0.0
32 0.0
33 0.0
34 0.0
35 0.0
36 -0.000000000000000
37 0.0
38 0.0
39 0.000000000000000
40 0.0
41 0.0
42 0.000000000000000
43 0.0
44 0.0
45 0.0
46 -0.000000000000000
47 0.0
48 0.0
49 0.000000000000000
50 0.0
51 0.0
52 0.000000000000000
53 0.0
54 0.0
55 0.0
 Sym=      1.5
 Ene=       0.0179
 Spin= Alpha
 Occup=    0.000000
1 0.0
2 0.0
3 0.0
4 0.0
5 0.0
6 0.0
7 0.0
8 0.17495440249691
9 0.0
10 0.0
11 0.015781797913789
12 0.0
13 0.0
14 0.013488203330093
15 0.0
16 0.0
17 0.92803129845645
18 0.0
19 0.0
20 0.0
21 0.0
22 0.0
23 0.0
24 0.0
25 0.0
26 0.0
27 0.0
28 0.0
29 0.0
30 0.0
31 0.0
32 0.0
33 0.0
34 0.0
35 0.0
36 0.0
37 0.0
38 0.000000000000000
39 0.0
40 0.0
41 -0.000000000000000
42 0.0
43 0.0
44 0.000000000000000
45 0.0
46 0.0
47 0.0
48 0.000000000000000
49 0.0
50 0.0
51 -0.000000000000000
52 0.0
53 0.0
54 0.000000000000000
55 0.0
 Sym=      3.1
 Ene=       0.0345
 Spin= Alpha
 Occup=    0.000000
1 0.060830552657904
2 0.000962789741689
3 -0.033550543524654
4 -1.06454616453350
5 1.63023013682774
6 0.0
7 0.0
8 0.0
9 0.0
10 0.0
11 0.0
12 0.0
13 0.0
14 0.0
15 0.0
16 0.0
17 0.0
18 -0.000000000000000
19 0.000000000000000
20 0.000000000000000
21 0.0
22 0.0
23 0.0
24 0.000000000000000
25 -0.000000000000000
26 -0.000000000000000
27 0.0
28 0.0
29 0.0
30 -0.000000000000000
31 0.000000000000000
32 0.000000000000000
33 0.0
34 0.0
35 0.0
36 0.0
37 0.0
38 0.0
39 0.0
40 0.0
41 0.0
42 0.0
43 0.0
44 0.0
45 0.0
46 0.0
47 0.0
48 0.0
49 0.0
50 0.0
51 0.0
52 0.0
53 0.0
54 0.0
55 0.0
 Sym=      2.3
 Ene=       0.0644
 Spin= Alpha
 Occup=    0.000000
1 0.0
2 0.0
3 0.0
4 0.0
5 0.0
6 0.0
7 0.59704340163115
8 0.0
9 0.0
10 -0.18040832325928
11 0.0
12 0.0
13 0.69837300286248
14 0.0
15 0.0
16 -0.61914236118237
17 0.0
18 0.0
19 0.0
20 0.0
21 0.0
22 0.0
23 0.0
24 0.0
25 0.0
26 0.0
27 0.0
28 0.0
29 0.0
30 0.0
31 0.0
32 0.0
33 0.0
34 0.0
35 0.0
36 0.0
37 -0.000000000000000
38 0.0
39 0.0
40 -0.000000000000000
41 0.0
42 0.0
43 0.000000000000000
44 0.0
45 0.0
46 0.0
47 0.000000000000000
48 0.0
49 0.0
50 0.000000000000000
51 0.0
52 0.0
53 -0.000000000000000
54 0.0
55 0.0
 Sym=      2.5
 Ene=       0.0644
 Spin= Alpha
 Occup=    0.000000
1 0.0
2 0.0
3 0.0
4 0.0
5 0.0
6 0.0
7 0.0
8 0.59704340163115
9 0.0
10 0.0
11 -0.18040832325928
12 0.0
13 0.0
14 0.69837300286248
15 0.0
16 0.0
17 -0.61914236118237
18 0.0
19 0.0
20 0.0
21 0.0
22 0.0
23 0.0
24 0.0
25 0.0
26 0.0
27 0.0
28 0.0
29 0.0
30 0.0
31 0.0
32 0.0
33 0.0
34 0.0
35 0.0
36 0.0
37 0.0
38 -0.000000000000000
39 0.0
40 0.0
41 0.000000000000000
42 0.0
43 0.0
44 0.000000000000000
45 0.0
46 0.0
47 0.0
48 0.000000000000000
49 0.0
50 0.0
51 -0.000000000000000
52 0.0
53 0.0
54 -0.000000000000000
55 0.0
 Sym=      2.2
 Ene=       0.0644
 Spin= Alpha
 Occup=    0.000000
1 0.0
2 0.0
3 0.0
4 0.0
5 0.0
6 0.59704340163115
7 0.0
8 0.0
9 -0.18040832325928
10 0.0
11 0.0
12 0.69837300286248
13 0.0
14 0.0
15 -0.61914236118238
16 0.0
17 0.0
18 0.0
19 0.0
20 0.0
21 0.0
22 0.0
23 0.0
24 0.0
25 0.0
26 0.0
27 0.0
28 0.0
29 0.0
30 0.0
31 0.0
32 0.0
33 0.0
34 0.0
35 0.0
36 -0.000000000000000
37 0.0
38 0.0
39 0.000000000000000
40 0.0
41 0.0
42 0.000000000000000
43 0.0
44 0.0
45 0.0
46 0.000000000000000
47 0.0
48 0.0
49 -0.000000000000000
50 0.0
51 0.0
52 -0.000000000000000
53 0.0
54 0.0
55 0.0
 Sym=      1.6
 Ene=       0.1779
 Spin= Alpha
 Occup=    0.000000
1 0.0
2 0.0
3 0.0
4 0.0
5 0.0
6 0.0
7 0.0
8 0.0
9 0.0
10 0.0
11 0.0
12 0.0
13 0.0
14 0.0
15 0.0
16 0.0
17 0.0
18 0.0
19 0.0
20 0.0
21 0.0
22 0.11656778814613
23 0.0
24 0.0
25 0.0
26 0.0
27 0.0
28 -0.27114613671521
29 0.0
30 0.0
31 0.0
32 0.0
33 0.0
34 1.12415828419571
35 0.0
36 0.0
37 0.0
38 0.0
39 0.0
40 0.0
41 0.0
42 0.0
43 0.0
44 0.0
45 0.0
46 0.0
47 0.0
48 0.0
49 0.0
50 0.0
51 0.0
52 0.0
53 0.0
54 0.0
55 0.0
 Sym=      1.7
 Ene=       0.1779
 Spin= Alpha
 Occup=    0.000000
1 0.0
2 0.0
3 0.0
4 0.0
5 0.0
6 0.0
7 0.0
8 0.0
9 0.0
10 0.0
11 0.0
12 0.0
13 0.0
14 0.0
15 0.0
16 0.0
17 0.0
18 0.0
19 0.0
20 0.0
21 0.0
22 0.0
23 0.11656778814613
24 0.0
25 0.0
26 0.0
27 0.0
28 0.0
29 -0.27114613671521
30 0.0
31 0.0
32 0.0
33 0.0
34 0.0
35 1.12415828419571
36 0.0
37 0.0
38 0.0
39 0.0
40 0.0
41 0.0
42 0.0
43 0.0
44 0.0
45 0.0
46 0.0
47 0.0
48 0.0
49 0.0
50 0.0
51 0.0
52 0.0
53 0.0
54 0.0
55 0.0
 Sym=      1.4
 Ene=       0.1779
 Spin= Alpha
 Occup=    0.000000
1 0.0
2 0.0
3 0.0
4 0.0
5 0.0
6 0.0
7 0.0
8 0.0
9 0.0
10 0.0
11 0.0
12 0.0
13 0.0
14 0.0
15 0.0
16 0.0
17 0.0
18 0.0
19 0.0
20 0.0
21 0.11656778814613
22 0.0
23 0.0
24 0.0
25 0.0
26 0.0
27 -0.27114613671520
28 0.0
29 0.0
30 0.0
31 0.0
32 0.0
33 1.12415828419571
34 0.0
35 0.0
36 0.0
37 0.0
38 0.0
39 0.0
40 0.0
41 0.0
42 0.0
43 0.0
44 0.0
45 0.0
46 0.0
47 0.0
48 0.0
49 0.0
50 0.0
51 0.0
52 0.0
53 0.0
54 0.0
55 0.0
 Sym=      4.1
 Ene=       0.1779
 Spin= Alpha
 Occup=    0.000000
1 -0.000000000000000
2 -0.000000000000000
3 0.000000000000000
4 0.000000000000000
5 -0.000000000000000
6 0.0
7 0.0
8 0.0
9 0.0
10 0.0
11 0.0
12 0.0
13 0.0
14 0.0
15 0.0
16 0.0
17 0.0
18 -0.026829281172860
19 -0.084825774613938
20 0.11165505578680
21 0.0
22 0.0
23 0.0
24 0.062407085667197
25 0.19731163682735
26 -0.25971872249455
27 0.0
28 0.0
29 0.0
30 -0.25873664731221
31 -0.81804415063767
32 1.07678079794989
33 0.0
34 0.0
35 0.0
36 0.0
37 0.0
38 0.0
39 0.0
40 0.0
41 0.0
42 0.0
43 0.0
44 0.0
45 0.0
46 0.0
47 0.0
48 0.0
49 0.0
50 0.0
51 0.0
52 0.0
53 0.0
54 0.0
55 0.0
 Sym=      5.1
 Ene=       0.1779
 Spin= Alpha
 Occup=    0.000000
1 -0.000000000000000
2 -0.000000000000002
3 -0.000000000000001
4 0.000000000000005
5 -0.000000000000002
6 0.0
7 0.0
8 0.0
9 0.0
10 0.0
11 0.0
12 0.0
13 0.0
14 0.0
15 0.0
16 0.0
17 0.0
18 0.11343826032247
19 -0.079953969222206
20 -0.033484291100260
21 0.0
22 0.0
23 0.0
24 -0.26386660098234
25 0.18597942205511
26 0.077887178927223
27 0.0
28 0.0
29 0.0
30 1.09397769413425
31 -0.77106135652952
32 -0.32291633760473
33 0.0
34 0.0
35 0.0
36 0.0
37 0.0
38 0.0
39 0.0
40 0.0
41 0.0
42 0.0
43 0.0
44 0.0
45 0.0
46 0.0
47 0.0
48 0.0
49 0.0
50 0.0
51 0.0
52 0.0
53 0.0
54 0.0
55 0.0
 Sym=      6.1
 Ene=       0.2653
 Spin= Alpha
 Occup=    0.000000
1 -0.47422261097592
2 -2.71777265457050
3 0.048815576327437
4 3.76042550357589
5 -1.16720062727739
6 0.0
7 0.0
8 0.0
9 0.0
10 0.0
11 0.0
12 0.0
13 0.0
14 0.0
15 0.0
16 0.0
17 0.0
18 -0.000000000000000
19 0.000000000000000
20 0.000000000000000
21 0.0
22 0.0
23 0.0
24 0.000000000000000
25 -0.000000000000000
26 -0.000000000000000
27 0.0
28 0.0
29 0.0
30 -0.000000000000002
31 0.000000000000001
32 0.000000000000000
33 0.0
34 0.0
35 0.0
36 0.0
37 0.0
38 0.0
39 0.0
40 0.0
41 0.0
42 0.0
43 0.0
44 0.0
45 0.0
46 0.0
47 0.0
48 0.0
49 0.0
50 0.0
51 0.0
52 0.0
53 0.0
54 0.0
55 0.0
 Sym=      3.3
 Ene=       0.2715
 Spin= Alpha
 Occup=    0.000000
1 0.0
2 0.0
3 0.0
4 0.0
5 0.0
6 0.0
7 -0.67971788441140
8 0.0
9 0.0
10 -0.87651051816718
11 0.0
12 0.0
13 1.56234121336549
14 0.0
15 0.0
16 -0.32439353901350
17 0.0
18 0.0
19 0.0
20 0.0
21 0.0
22 0.0
23 0.0
24 0.0
25 0.0
26 0.0
27 0.0
28 0.0
29 0.0
30 0.0
31 0.0
32 0.0
33 0.0
34 0.0
35 0.0
36 0.0
37 -0.000000000000000
38 0.0
39 0.0
40 -0.000000000000000
41 0.0
42 0.0
43 0.000000000000000
44 0.0
45 0.0
46 0.0
47 0.000000000000000
48 0.0
49 0.0
50 0.000000000000000
51 0.0
52 0.0
53 -0.000000000000000
54 0.0
55 0.0
 Sym=      3.5
 Ene=       0.2715
 Spin= Alpha
 Occup=    0.000000
1 0.0
2 0.0
3 0.0
4 0.0
5 0.0
6 0.0
7 0.0
8 -0.67971788441140
9 0.0
10 0.0
11 -0.87651051816718
12 0.0
13 0.0
14 1.56234121336549
15 0.0
16 0.0
17 -0.32439353901350
18 0.0
19 0.0
20 0.0
21 0.0
22 0.0
23 0.0
24 0.0
25 0.0
26 0.0
27 0.0
28 0.0
29 0.0
30 0.0
31 0.0
32 0.0
33 0.0
34 0.0
35 0.0
36 0.0
37 0.0
38 -0.000000000000000
39 0.0
40 0.0
41 0.000000000000000
42 0.0
43 0.0
44 0.000000000000000
45 0.0
46 0.0
47 0.0
48 0.000000000000000
49 0.0
50 0.0
51 -0.000000000000000
52 0.0
53 0.0
54 -0.000000000000000
55 0.0
 Sym=      3.2
 Ene=       0.2715
 Spin= Alpha
 Occup=    0.000000
1 0.0
2 0.0
3 0.0
4 0.0
5 0.0
6 -0.67971788441140
7 0.0
8 0.0
9 -0.87651051816718
10 0.0
11 0.0
12 1.56234121336549
13 0.0
14 0.0
15 -0.32439353901350
16 0.0
17 0.0
18 0.0
19 0.0
20 0.0
21 0.0
22 0.0
23 0.0
24 0.0
25 0.0
26 0.0
27 0.0
28 0.0
29 0.0
30 0.0
31 0.0
32 0.0
33 0.0
34 0.0
35 0.0
36 -0.000000000000000
37 0.0
38 0.0
39 0.000000000000000
40 0.0
41 0.0
42 0.000000000000000
43 0.0
44 0.0
45 0.0
46 0.000000000000000
47 0.0
48 0.0
49 -0.000000000000000
50 0.0
51 0.0
52 -0.000000000000000
53 0.0
54 0.0
55 0.0
 Sym=      4.5
 Ene=       0.4911
 Spin= Alpha
 Occup=    0.000000
1 0.0
2 0.0
3 0.0
4 0.0
5 0.0
6 0.0
7 0.0
8 0.000000000000001
9 0.0
10 0.0
11 0.000000000000000
12 0.0
13 0.0
14 -0.000000000000001
15 0.0
16 0.0
17 0.000000000000000
18 0.0
19 0.0
20 0.0
21 0.0
22 0.0
23 0.0
24 0.0
25 0.0
26 0.0
27 0.0
28 0.0
29 0.0
30 0.0
31 0.0
32 0.0
33 0.0
34 0.0
35 0.0
36 0.0
37 0.0
38 -0.13612348347693
39 0.0
40 0.0
41 0.10208005000466
42 0.0
43 0.0
44 0.080548767428438
45 0.0
46 0.0
47 0.0
48 1.06383379567952
49 0.0
50 0.0
51 -0.79777716736152
52 0.0
53 0.0
54 -0.62950564297910
55 0.0
 Sym=      4.2
 Ene=       0.4911
 Spin= Alpha
 Occup=    0.000000
1 0.0
2 0.0
3 0.0
4 0.0
5 0.0
6 0.000000000000000
7 0.0
8 0.0
9 0.000000000000000
10 0.0
11 0.0
12 -0.000000000000000
13 0.0
14 0.0
15 0.000000000000000
16 0.0
17 0.0
18 0.0
19 0.0
20 0.0
21 0.0
22 0.0
23 0.0
24 0.0
25 0.0
26 0.0
27 0.0
28 0.0
29 0.0
30 0.0
31 0.0
32 0.0
33 0.0
34 0.0
35 0.0
36 -0.078784423946611
37 0.0
38 0.0
39 0.14958624120224
40 0.0
41 0.0
42 -0.043885844694572
43 0.0
44 0.0
45 0.0
46 0.61571692574080
47 0.0
48 0.0
49 -1.16904809291469
50 0.0
51 0.0
52 0.34297715240251
53 0.0
54 0.0
55 0.0
 Sym=      5.2
 Ene=       0.4911
 Spin= Alpha
 Occup=    0.000000
1 0.0
2 0.0
3 0.0
4 0.0
5 0.0
6 -0.000000000000000
7 0.0
8 0.0
9 -0.000000000000001
10 0.0
11 0.0
12 0.000000000000001
13 0.0
14 0.0
15 -0.000000000000000
16 0.0
17 0.0
18 0.0
19 0.0
20 0.0
21 0.0
22 0.0
23 0.0
24 0.0
25 0.0
26 0.0
27 0.0
28 0.0
29 0.0
30 0.0
31 0.0
32 0.0
33 0.0
34 0.0
35 0.0
36 0.11170116087320
37 0.0
38 0.0
39 -0.006702104103150
40 0.0
41 0.0
42 -0.14316072922373
43 0.0
44 0.0
45 0.0
46 -0.87296818240539
47 0.0
48 0.0
49 0.052378360184275
50 0.0
51 0.0
52 1.11883135864746
53 0.0
54 0.0
55 0.0
 Sym=      4.3
 Ene=       0.4911
 Spin= Alpha
 Occup=    0.000000
1 0.0
2 0.0
3 0.0
4 0.0
5 0.0
6 0.0
7 0.000000000000000
8 0.0
9 0.0
10 -0.000000000000000
11 0.0
12 0.0
13 -0.000000000000000
14 0.0
15 0.0
16 0.000000000000000
17 0.0
18 0.0
19 0.0
20 0.0
21 0.0
22 0.0
23 0.0
24 0.0
25 0.0
26 0.0
27 0.0
28 0.0
29 0.0
30 0.0
31 0.0
32 0.0
33 0.0
34 0.0
35 0.0
36 0.0
37 0.061543729669728
38 0.0
39 0.0
40 -0.14698425961669
41 0.0
42 0.0
43 0.064414681738464
44 0.0
45 0.0
46 0.0
47 -0.48097725581578
48 0.0
49 0.0
50 1.14871305684493
51 0.0
52 0.0
53 -0.50341435306370
54 0.0
55 0.0
 Sym=      5.3
 Ene=       0.4911
 Spin= Alpha
 Occup=    0.000000
1 0.0
2 0.0
3 0.0
4 0.0
5 0.0
6 0.0
7 -0.000000000000000
8 0.0
9 0.0
10 -0.000000000000000
11 0.0
12 0.0
13 0.000000000000000
14 0.0
15 0.0
16 -0.000000000000000
17 0.0
18 0.0
19 0.0
20 0.0
21 0.0
22 0.0
23 0.0
24 0.0
25 0.0
26 0.0
27 0.0
28 0.0
29 0.0
30 0.0
31 0.0
32 0.0
33 0.0
34 0.0
35 0.0
36 0.0
37 0.12205123569780
38 0.0
39 0.0
40 -0.028576024589814
41 0.0
42 0.0
43 -0.13517289126507
44 0.0
45 0.0
46 0.0
47 -0.95385620484631
48 0.0
49 0.0
50 0.22332767225990
51 0.0
52 0.0
53 1.05640471661788
54 0.0
55 0.0
 Sym=      1.8
 Ene=       0.4911
 Spin= Alpha
 Occup=    0.000000
1 0.0
2 0.0
3 0.0
4 0.0
5 0.0
6 0.0
7 0.0
8 0.0
9 0.0
10 0.0
11 0.0
12 0.0
13 0.0
14 0.0
15 0.0
16 0.0
17 0.0
18 0.0
19 0.0
20 0.0
21 0.0
22 0.0
23 0.0
24 0.0
25 0.0
26 0.0
27 0.0
28 0.0
29 0.0
30 0.0
31 0.0
32 0.0
33 0.0
34 0.0
35 0.0
36 0.0
37 0.0
38 0.0
39 0.0
40 0.0
41 0.0
42 0.0
43 0.0
44 0.0
45 -0.13668992207555
46 0.0
47 0.0
48 0.0
49 0.0
50 0.0
51 0.0
52 0.0
53 0.0
54 0.0
55 1.06826063305538
 Sym=      5.5
 Ene=       0.4911
 Spin= Alpha
 Occup=    0.000000
1 0.0
2 0.0
3 0.0
4 0.0
5 0.0
6 0.0
7 0.0
8 0.000000000000000
9 0.0
10 0.0
11 0.000000000000000
12 0.0
13 0.0
14 -0.000000000000000
15 0.0
16 0.0
17 0.000000000000000
18 0.0
19 0.0
20 0.0
21 0.0
22 0.0
23 0.0
24 0.0
25 0.0
26 0.0
27 0.0
28 0.0
29 0.0
30 0.0
31 0.0
32 0.0
33 0.0
34 0.0
35 0.0
36 0.0
37 0.0
38 -0.012431091791379
39 0.0
40 0.0
41 -0.10954736485864
42 0.0
43 0.0
44 0.12622542462668
45 0.0
46 0.0
47 0.0
48 0.097151609899139
49 0.0
50 0.0
51 0.85613581130548
52 0.0
53 0.0
54 -0.98647837362029
55 0.0
 Sym=      2.4
 Ene=       0.5845
 Spin= Alpha
 Occup=    0.000000
1 0.0
2 0.0
3 0.0
4 0.0
5 0.0
6 0.0
7 0.0
8 0.0
9 0.0
10 0.0
11 0.0
12 0.0
13 0.0
14 0.0
15 0.0
16 0.0
17 0.0
18 0.0
19 0.0
20 0.0
21 -0.30108091920043
22 0.0
23 0.0
24 0.0
25 0.0
26 0.0
27 1.54865510100749
28 0.0
29 0.0
30 0.0
31 0.0
32 0.0
33 -0.73865378825615
34 0.0
35 0.0
36 0.0
37 0.0
38 0.0
39 0.0
40 0.0
41 0.0
42 0.0
43 0.0
44 0.0
45 0.0
46 0.0
47 0.0
48 0.0
49 0.0
50 0.0
51 0.0
52 0.0
53 0.0
54 0.0
55 0.0
 Sym=      2.6
 Ene=       0.5845
 Spin= Alpha
 Occup=    0.000000
1 0.0
2 0.0
3 0.0
4 0.0
5 0.0
6 0.0
7 0.0
8 0.0
9 0.0
10 0.0
11 0.0
12 0.0
13 0.0
14 0.0
15 0.0
16 0.0
17 0.0
18 0.0
19 0.0
20 0.0
21 0.0
22 -0.30108091920043
23 0.0
24 0.0
25 0.0
26 0.0
27 0.0
28 1.54865510100749
29 0.0
30 0.0
31 0.0
32 0.0
33 0.0
34 -0.73865378825615
35 0.0
36 0.0
37 0.0
38 0.0
39 0.0
40 0.0
41 0.0
42 0.0
43 0.0
44 0.0
45 0.0
46 0.0
47 0.0
48 0.0
49 0.0
50 0.0
51 0.0
52 0.0
53 0.0
54 0.0
55 0.0
 Sym=      2.7
 Ene=       0.5845
 Spin= Alpha
 Occup=    0.000000
1 0.0
2 0.0
3 0.0
4 0.0
5 0.0
6 0.0
7 0.0
8 0.0
9 0.0
10 0.0
11 0.0
12 0.0
13 0.0
14 0.0
15 0.0
16 0.0
17 0.0
18 0.0
19 0.0
20 0.0
21 0.0
22 0.0
23 -0.30108091920043
24 0.0
25 0.0
26 0.0
27 0.0
28 0.0
29 1.54865510100749
30 0.0
31 0.0
32 0.0
33 0.0
34 0.0
35 -0.73865378825615
36 0.0
37 0.0
38 0.0
39 0.0
40 0.0
41 0.0
42 0.0
43 0.0
44 0.0
45 0.0
46 0.0
47 0.0
48 0.0
49 0.0
50 0.0
51 0.0
52 0.0
53 0.0
54 0.0
55 0.0
 Sym=      7.1
 Ene=       0.5845
 Spin= Alpha
 Occup=    0.000000
1 -0.000000000000000
2 -0.000000000000000
3 0.000000000000000
4 0.000000000000000
5 -0.000000000000000
6 0.0
7 0.0
8 0.0
9 0.0
10 0.0
11 0.0
12 0.0
13 0.0
14 0.0
15 0.0
16 0.0
17 0.0
18 -0.26001976520887
19 0.26146170345688
20 -0.001441938248013
21 0.0
22 0.0
23 0.0
24 1.33745086478080
25 -1.34486769155632
26 0.007416826775521
27 0.0
28 0.0
29 0.0
30 -0.63791682682233
31 0.64145439124905
32 -0.003537564426718
33 0.0
34 0.0
35 0.0
36 0.0
37 0.0
38 0.0
39 0.0
40 0.0
41 0.0
42 0.0
43 0.0
44 0.0
45 0.0
46 0.0
47 0.0
48 0.0
49 0.0
50 0.0
51 0.0
52 0.0
53 0.0
54 0.0
55 0.0
 Sym=      8.1
 Ene=       0.5845
 Spin= Alpha
 Occup=    0.000000
1 0.000000000000000
2 0.000000000000000
3 -0.000000000000000
4 -0.000000000000000
5 0.000000000000000
6 0.0
7 0.0
8 0.0
9 0.0
10 0.0
11 0.0
12 0.0
13 0.0
14 0.0
15 0.0
16 0.0
17 0.0
18 0.15178748830925
19 0.14928997800232
20 -0.30107746631157
21 0.0
22 0.0
23 0.0
24 -0.78074183067985
25 -0.76789550987371
26 1.54863734055356
27 0.0
28 0.0
29 0.0
30 0.37238627923455
31 0.36625903791243
32 -0.73864531714698
33 0.0
34 0.0
35 0.0
36 0.0
37 0.0
38 0.0
39 0.0
40 0.0
41 0.0
42 0.0
43 0.0
44 0.0
45 0.0
46 0.0
47 0.0
48 0.0
49 0.0
50 0.0
51 0.0
52 0.0
53 0.0
54 0.0
55 0.0
 Sym=      6.3
 Ene=       1.0165
 Spin= Alpha
 Occup=    0.000000
1 0.0
2 0.0
3 0.0
4 0.0
5 0.0
6 0.0
7 4.68973406416398
8 0.0
9 0.0
10 -4.02974437814657
11 0.0
12 0.0
13 -0.90491364278198
14 0.0
15 0.0
16 -0.14872504056426
17 0.0
18 0.0
19 0.0
20 0.0
21 0.0
22 0.0
23 0.0
24 0.0
25 0.0
26 0.0
27 0.0
28 0.0
29 0.0
30 0.0
31 0.0
32 0.0
33 0.0
34 0.0