[Molden Format]
[Molpro variables]
_NUMVAR=  902.0000000000000    
_AVOGAD= 0.6022136736000000E+24
_BOLTZ= 0.1380658000000000E-22
_CLIGHT=  29979245800.00000    
_EV= 0.3674932379085202E-01
_ENULL= 0.8854187817000000E-11
_KJOULE= 0.3808798324128737E-03
_KJOULE/MOL= 0.3808798324128737E-03
_CM= 0.4556335267302901E-05
_CM-1= 0.4556335267302901E-05
_DEB2SI= 0.3335641000000000E-29
_AMU2AU=  1822.888390000000    
_KCAL= 0.1593601117815568E-02
_KCAL/MOL= 0.1593601117815568E-02
_KELVIN= 0.3166811411060229E-05
_JOULE= 0.4359748200000000E-17
_HERTZ= 0.1519829846004524E-15
_HZ= 0.1519829846004524E-15
_JPCAL=  4.184000000000000    
_PLANCK= 0.6626075540000000E-33
_TOA= 0.5291772109200000    
_TOANG= 0.5291772109200000    
_TORAD= 0.1745329251994330E-01
_TOCM=  219474.6306700000    
_TODEBYE=  2.541580000000000    
_TOE= 0.4803242000000000E-09
_TOEV=  27.21138505000000    
_TOHERTZ=  6579683920729000.    
_TOHZ=  6579683920729000.    
_TOK=  315775.0400000000    
_TOKCAL=  627.5096000000000    
_TOKELVIN=  315775.0400000000    
_TOKJ=  2625.500000000000    
_TOKJOULE=  2625.500000000000    
_TOKG= 0.1660565586000000E-26
_ANG=  1.889726124565062    
_ANGSTROM=  1.889726124565062    
_RPAREF=  0.000000000000000    
_RPADISS=  0.000000000000000    
_IGNORE_UNDEF=  2.000000000000000    
_STRICTCHECK=  0.000000000000000    
_SEW_ONEEL=  0.000000000000000    
_CPPDONE=FALSE
_DKROLL_DONE=  0.000000000000000    
_FOCKDONE=TRUE
_GRADONE=FALSE
_HESSDONE=FALSE
_INTDONE=TRUE
_SCFDONE=TRUE
_MODUL_BLOCK=FALSE
_MODUL_CUDA=FALSE
_MODUL_SLATER=FALSE
_MODUL_MRCC=FALSE
_MODUL_NBO6=FALSE
_MODUL_NECI=TRUE
_MODUL_AIMS=TRUE
_MRCC_EXEC=
_FITC_AO_SAVED=  0.000000000000000    
_FITC_MO_SAVED=  0.000000000000000    
_SHARED_FS=TRUE
_LSTYP=SEWARD
_INTYP=INTS
_GEOMTYP=ZMAT
_GRADTYP=ALASKA
_DIRECT=FALSE
_DKHO= -1.000000000000000    
_SYNCM=  0.000000000000000    
_BASIS=AUG-CC-PVTZ
_ZORIENT=  1.000000000000000    
_NELEC=  22.00000000000000    
!SPIN=  0.000000000000000    
_OPTCONV= 0.1715161145110500E-05
_QSDSTEP=  0.000000000000000    
_QSDIRC=  0.000000000000000    
_PROGRAM=MULTI
_CPUSTEP=  3.159999999999999    
_SYSSTEP= 0.3999999999999999    
_WALLSTEP=  3.730000000000000    
!DFMP2=  0.000000000000000    
!DFSCF=  0.000000000000000    
!SCSGRD=  0.000000000000000    
_BASINP=  610.0000000000000    
_CPUTOT=  8.670000000000000    
_CPUF12B=  0.000000000000000    
_SYSF12B=  0.000000000000000    
_WALLF12B=  0.000000000000000    
_DFTEXFAC=  1.000000000000000    
_DMX=  0.000000000000000    
_DMY=  0.000000000000000    
_DMZ=  0.000000000000000    
_DMX_SCF=  0.000000000000000    
_DMY_SCF=  0.000000000000000    
_DMZ_SCF=  0.000000000000000    
_EHOMO=-0.5443931599739857    
_ELUMO= 0.4707374691480773E-01
_EIGS= -20.65551557586197    
_EMP2_SING=-0.3685726453946023    
_EMP2_TRIP=-0.2461934059546703    
_EMP2_SCS= -188.3023488650473    
_ECSING=-0.3685726453946024    
_ECTRIP=-0.2461934059546701    
_ENERG_CC=  0.000000000000000    
_ENERG_CV=  0.000000000000000    
_ENERG_VV=-0.6147660513492726    
_ENERGY= -187.8855139428952    
_ENERGY_METHOD=MULTI
_ENERGY_BASIS=aug-cc-pVTZ
_GEOMETRY_METHOD=MP2
_GEOMETRY_BASIS=aug-cc-pVTZ
_ENUC=  57.88172658691357    
_GRADENERG= -188.3216407369148    
_GRADEXFAC=  9999.000000000000    
_GRADMETHOD=TRUE
_NMRMETHOD=  0.000000000000000    
_NMRMAGNET=  0.000000000000000    
_GRADRECORD=TRUE
_VIRIAL=-0.6363651683108890E-05
!GRID_FREEZE= -1.000000000000000    
_ITERATIONS=  3.000000000000000    
_LASTNELEC=  16.00000000000000    
_LASTSPIN=  0.000000000000000    
_LASTSYM=  1.000000000000000    
_MPP_PROG=  1.000000000000000    
_MSNSTATES=  0.000000000000000    
_RS2PHASE=  0.000000000000000    
_NPROC_MPP=  23.00000000000000    
_NPROC_MPPX=  23.00000000000000    
_NPROC_SMP=  1.000000000000000    
_NUMSTEP=  0.000000000000000    
_OPTCONVMX= 0.1715161145110500E-05
_OPTCONVRMS= 0.9902487488406352E-06
_OPTGRAD= 0.2034806651028557E-05
_OPTGRADMX= 0.2034806651028557E-05
_OPTGRADRMS= 0.5087016627571393E-06
_OPTSTEP=  1.000000000000000    
_ORBITAL=  2140.200000000000    
_PI=  3.141592653589793    
_ECDIAG=-0.1041841933109706    
_EPDIAG=-0.1041841933109706    
!MCACT=  3.000000000000000    
!MCCLOSED=  2.000000000000000    
!MCFREEZE=  0.000000000000000    
!MCMS2=  0.000000000000000    
!MCNEL=  16.00000000000000    
!MCNSTSYM=  1.000000000000000    
!MCSTATE=  1.000000000000000    
!MCSYM=  1.000000000000000    
!MCWEIGHT=  1.000000000000000    
_SEIG_MIN= 0.3556233536495173E-03
_SEWPROP=TRUE
_STATUS=  1.000000000000000    
_SYSTOT= 0.8700000000000000    
_T1DIAG=  0.000000000000000    
_VERSION=  2015001.000000000    
_WALLTOT=  13.86000000000000    
_DATE=22-Jan-20
_LASTORB=MCSCF
_MACHINE= 64 bit mpp version
_OUTPUT=/global/cscratch1/sd/rbello/Quantum_Chem/molpro.xml
_PGROUP=D2h
_TIME=11:21:27
_LIBMOL=/global/common/cori/software/molpro/2015/molprop_2015_1_linux_x86_64_i8/lib/
_VIGRDC=  0.000000000000000    
!VIBCNT=  0.000000000000000    
!RGHFCNT=  0.000000000000000    
!SURFREC=  0.000000000000000    
!ROTREC=  0.000000000000000    
!POLYREC=  0.000000000000000    
!DIPREC=  0.000000000000000    
!DIP4DREC=  0.000000000000000    
!DIPROT=  0.000000000000000    
!DIP4DROT=  0.000000000000000    
!PTREC=  0.000000000000000    
!PT4DREC=  0.000000000000000    
!VSCFREC=  0.000000000000000    
!VCIREC=  0.000000000000000    
!PVCIREC=  0.000000000000000    
!VMP2REC=  0.000000000000000    
!VMCSCFREC=  0.000000000000000    
!VMRCIREC=  0.000000000000000    
!VIBSTATEREC=  0.000000000000000    
!VIBSTATECNT=  0.000000000000000    
!VIBINFO=  0.000000000000000    
!GAREC=  0.000000000000000    
!SCFORB=  21002.00000000000    
!MCORB=  21402.00000000000    
!CIOCC=  4.000000000000000    
!CICORE=  2.000000000000000    
!CICLOS=  4.000000000000000    
!CIISTSYM=  1.000000000000000    
!CIISTMS2=  0.000000000000000    
!CIISTNEL=  16.00000000000000    
!NEWMOL=  0.000000000000000    
!NEWSYM=  0.000000000000000    
_SLFILES=slscratch
_NGSSTO=  9.000000000000000    
_SIN=SIN
_COS=COS
_TAN=TAN
_ACOS=ACOS
_ASIN=ASIN
_ATAN=ATAN
_COSH=COSH
_SINH=SINH
_TANH=TANH
_ABS=ABS
_MOD=MOD
_ERF=ERF
_REFC=REFC
_ERFC=ERFC
_HYPOT=HYPOT
_J0=J0
_J1=J1
_JN=JN
_GAMMA=GAMMA
_LGAMMA=LGAMMA
_Y0=Y0
_Y1=Y1
_YN=YN
_EXP=EXP
_LOG=LOG
_LOG10=LOG10
_SQRT=SQRT
_INT=INT
_NINT=NINT
_MAX=MAX
_MIN=MIN
_COSMO=  0.000000000000000    
_COSMOIT=  0.000000000000000    
_COSMOES=  0.000000000000000    
_COSMOEDS=  0.000000000000000    
_COSMOEC=  0.000000000000000    
_COSMOEDCORR=  0.000000000000000    
_FEPSI=  1.000000000000000    
_SL_IsMM=  0.000000000000000    
_SL_NSYM=  8.000000000000000    
_SL_System_BitSw=  0.000000000000000    
_SL_Unique_atoms=  0.000000000000000    
_SL_GRAD=  0.000000000000000    
_SL_MAXUPD_Hess=  5.000000000000000    
_SL_N_PRINT_COD=  5.000000000000000    
_SL_PRINT_CODES=  0.000000000000000    
_SL_BasType=  0.000000000000000    
_SL_Energy_Pred=  0.000000000000000    
_SL_New_Coords=  0.000000000000000    
_SL_Total_Nuclea=  0.000000000000000    
_SL_Highest_Mltp=  0.000000000000000    
_SL_Ref_Geom=  0.000000000000000    
_SL_Symmetry_ope=  1.000000000000000    
_SL_agrad=  0.000000000000000    
_SL_GrdMax=  0.000000000000000    
_SL_GrdNorm=  0.000000000000000    
_SL_GrdRMS=  0.000000000000000    
_SL_Hss_Q=  0.000000000000000    
_SL_Hss_X=  0.000000000000000    
_SL_BMxOld=  0.000000000000000    
_SL_KtB=  0.000000000000000    
_SL_TROld=  0.000000000000000    
_SL_No_of_Intern=  0.000000000000000    
_SL_Hess=  0.000000000000000    
_SL_K=  0.000000000000000    
!LATTICE= -1.000000000000000    
!NEWLATTICE=  0.000000000000000    
!LATGRAD_VAR=FALSE
!SEW_LATTICE=  1.000000000000000    
!LOCAL=  0.000000000000000    
!SAVEDOM= -1.000000000000000    
!RESTDOM= -1.000000000000000    
!SAVEDOM_HF= -1.000000000000000    
!RESTDOM_HF= -1.000000000000000    
!HESSREC=  0.000000000000000    
!FREQREC=  0.000000000000000    
!NMODREC=  0.000000000000000    
!GTASKS=  0.000000000000000    
!HTASKS=  0.000000000000000    
!SAVEDOM_EOM= -1.000000000000000    
!RESTDOM_EOM= -1.000000000000000    
!GRADSTATE= -1.000000000000000    
!THRCHG= 0.1000000000000000    
!DEBUG= -1.000000000000000    
!CFIT_CPHF=  0.000000000000000    
!RDOMAUX_CPHF=  5.000000000000000    
!THRAO_CPHF= 0.9999999999999999E-11
!THRMO_CPHF= 0.9999999999999999E-11
!THROV_CPHF= 0.1000000000000000E-11
!THRSW_CPHF= 0.1000000000000000E-09
!THRPROD_CPHF= 0.9999999999999999E-11
!THRAOPR_CPHF= 0.1000000000000000E-11
!CFIT_SCFGRD=  0.000000000000000    
!RDOMAUX_SCFGRD=  7.000000000000000    
!THRAO_SCFGRD= 0.9999999999999999E-11
!THRMO_SCFGRD= 0.9999999999999999E-11
!THROV_SCFGRD= 0.1000000000000000E-11
!THRSW_SCFGRD= 0.1000000000000000E-09
!THRPROD_SCFGRD= 0.9999999999999999E-11
!THRAOPR_SCFGRD= 0.1000000000000000E-11
!LOCFIT_SCF=  0.000000000000000    
!LOCFIT_MP2= -1.000000000000000    
_RIDOM=  0.000000000000000    
!CC2_METHOD=  0.000000000000000    
_BASIS2006=FALSE
_SVDDEL= -1.000000000000000    
_SVDDELA= -1.000000000000000    
_SVDDELP= -1.000000000000000    
_SVDDELF= -1.000000000000000    
_SVDDELS= -1.000000000000000    
_SVDDEL_ABS= -1.000000000000000    
_SVDDELA_ABS= -1.000000000000000    
_SVDDELP_ABS= -1.000000000000000    
_SVDDELF_ABS= -1.000000000000000    
_SVDDELS_ABS= -1.000000000000000    
_MAXBASIS=  0.000000000000000    
!OPT_CONICAL=  0.000000000000000    
!CLEARSP_JGRID=  0.000000000000000    
_GRDHYBR=  0.000000000000000    
_STATEGRAD=  1.000000000000000    
_4EXT_NDISKS=  1.000000000000000    
!ZMP=  0.000000000000000    
_MAXIT_ZMP=  500.0000000000000    
_MAXDIS_ZMP=  100.0000000000000    
_ACCU_ZMP=  14.00000000000000    
_SHIFTA_ZMP= -100.0000000000000    
!EMBEDFLAG=  1.000000000000000    
!EMBED=FALSE
!EMBED_F12=FALSE
!EMBEDNUC=  0.000000000000000    
_EMBEDENERGY=  0.000000000000000    
_KSPACETIME=  0.000000000000000    
_RSPACETIME=  0.000000000000000    
!EMBED_DFC=FALSE
!NUM_VOIDS=  0.000000000000000    
_IBODY=  0.000000000000000    
_EMBE_TOTAL=  0.000000000000000    
_EMBE_HF=  0.000000000000000    
_EMBE_CORR=  0.000000000000000    
!EMBED_PROJ=FALSE
!EMBED_TRUNC=  0.000000000000000    
!EMB_PROJ_ZMU=  1000000.000000000    
!CORRECTION=  0.000000000000000    
!CORRECTION_HF=  0.000000000000000    
!EMBED_ENERGY=  0.000000000000000    
!EMBED_NAXC=FALSE
!EMBED_AORB=  0.000000000000000    
!EMBED_NACORR=  0.000000000000000    
!EMBED_MP2=FALSE
!EMBED_TRUNC_PERTURBATION=FALSE
!EMBED_FROZEN=  0.000000000000000    
_CHANGE_BASIS=FALSE
_RESTORE_BASIS=FALSE
_FIX_EMBED_GUESS=FALSE
!EDFT=  0.000000000000000    
_IFASTLATGRAD=  0.000000000000000    
_SINDEX=  0.000000000000000    
_AVDOM_OSV=  0.000000000000000    
_AVDOM_PNO=  0.000000000000000    
_AVDOM_PAO=  0.000000000000000    
_AVDOM_LMO=  0.000000000000000    
_CC2OSV_FLAG=  0.000000000000000    
_TMADC2_FLAG=FALSE
_PROPADC2_FLAG=FALSE
_LEN_VirQ=  0.000000000000000    
_GRDCC2LR_FLAG=FALSE
_GRDADC2_FLAG=FALSE
_DMX_CC=  0.000000000000000    
_DMY_CC=  0.000000000000000    
_DMZ_CC=  0.000000000000000    
_DMX_NUC=  0.000000000000000    
_DMY_NUC=  0.000000000000000    
_DMZ_NUC=  0.000000000000000    
GX1=  0.000000000000000    
GY1=  0.000000000000000    
GZ1=  0.000000000000000    
GX2=  0.000000000000000    
GY2=  0.000000000000000    
GZ2=  2.211406043802076    
GX3=  0.000000000000000    
GY3=  0.000000000000000    
GZ3= -2.211406043802076    
CX1=  0.000000000000000    
CY1=  0.000000000000000    
CZ1=  0.000000000000000    
O1X2=  0.000000000000000    
O1Y2=  0.000000000000000    
O1Z2=  2.211406043802076    
O2X3=  0.000000000000000    
O2Y3=  0.000000000000000    
O2Z3= -2.211406043802076    
[Atoms] Angs
C     1    6         0.0000000000        0.0000000000        0.0000000000
O     2    8         0.0000000000        0.0000000000        1.1702256825
O     3    8         0.0000000000        0.0000000000       -1.1702256825
[GTO]
   1 0
 s   10  1.00
  0.8236000000D+04  0.5309998617D-03
  0.1235000000D+04  0.4107998930D-02
  0.2808000000D+03  0.2108699451D-01
  0.7927000000D+02  0.8185297868D-01
  0.2559000000D+02  0.2348169388D+00
  0.8997000000D+01  0.4344008869D+00
  0.3319000000D+01  0.3461289099D+00
  0.9059000000D+00  0.3937798974D-01
  0.3643000000D+00 -0.8982997660D-02
  0.1285000000D+00  0.2384999379D-02
 s   10  1.00
  0.8236000000D+04 -0.1129999414D-03
  0.1235000000D+04 -0.8779995449D-03
  0.2808000000D+03 -0.4539997647D-02
  0.7927000000D+02 -0.1813299060D-01
  0.2559000000D+02 -0.5575997110D-01
  0.8997000000D+01 -0.1268949342D+00
  0.3319000000D+01 -0.1703519117D+00
  0.9059000000D+00  0.1403819272D+00
  0.3643000000D+00  0.5986836897D+00
  0.1285000000D+00  0.3953887950D+00
 s   10  1.00
  0.8236000000D+04  0.0000000000D+00
  0.1235000000D+04  0.0000000000D+00
  0.2808000000D+03  0.0000000000D+00
  0.7927000000D+02  0.0000000000D+00
  0.2559000000D+02  0.0000000000D+00
  0.8997000000D+01  0.0000000000D+00
  0.3319000000D+01  0.0000000000D+00
  0.9059000000D+00  0.1000000000D+01
  0.3643000000D+00  0.0000000000D+00
  0.1285000000D+00  0.0000000000D+00
 s   10  1.00
  0.8236000000D+04  0.0000000000D+00
  0.1235000000D+04  0.0000000000D+00
  0.2808000000D+03  0.0000000000D+00
  0.7927000000D+02  0.0000000000D+00
  0.2559000000D+02  0.0000000000D+00
  0.8997000000D+01  0.0000000000D+00
  0.3319000000D+01  0.0000000000D+00
  0.9059000000D+00  0.0000000000D+00
  0.3643000000D+00  0.0000000000D+00
  0.1285000000D+00  0.1000000000D+01
 s    1  1.00
  0.4402000000D-01  0.1000000000D+01
 p    5  1.00
  0.1871000000D+02  0.1403099838D-01
  0.4133000000D+01  0.8686598995D-01
  0.1200000000D+01  0.2902159664D+00
  0.3827000000D+00  0.5010079421D+00
  0.1209000000D+00  0.3434059603D+00
 p    5  1.00
  0.1871000000D+02  0.0000000000D+00
  0.4133000000D+01  0.0000000000D+00
  0.1200000000D+01  0.0000000000D+00
  0.3827000000D+00  0.1000000000D+01
  0.1209000000D+00  0.0000000000D+00
 p    5  1.00
  0.1871000000D+02  0.0000000000D+00
  0.4133000000D+01  0.0000000000D+00
  0.1200000000D+01  0.0000000000D+00
  0.3827000000D+00  0.0000000000D+00
  0.1209000000D+00  0.1000000000D+01
 p    1  1.00
  0.3569000000D-01  0.1000000000D+01
 d    1  1.00
  0.1097000000D+01  0.1000000000D+01
 d    1  1.00
  0.3180000000D+00  0.1000000000D+01
 d    1  1.00
  0.1000000000D+00  0.1000000000D+01
 f    1  1.00
  0.7610000000D+00  0.1000000000D+01
 f    1  1.00
  0.2680000000D+00  0.1000000000D+01
  
   2 0
 s   10  1.00
  0.1533000000D+05  0.5079996682D-03
  0.2299000000D+04  0.3928997434D-02
  0.5224000000D+03  0.2024298678D-01
  0.1473000000D+03  0.7918094828D-01
  0.4755000000D+02  0.2306868493D+00
  0.1676000000D+02  0.4331177171D+00
  0.6207000000D+01  0.3502597712D+00
  0.1752000000D+01  0.4272797209D-01
  0.6882000000D+00 -0.8153994674D-02
  0.2384000000D+00  0.2380998445D-02
 s   10  1.00
  0.1533000000D+05 -0.1150000604D-03
  0.2299000000D+04 -0.8950004697D-03
  0.5224000000D+03 -0.4636002433D-02
  0.1473000000D+03 -0.1872400983D-01
  0.4755000000D+02 -0.5846303068D-01
  0.1676000000D+02 -0.1364630716D+00
  0.6207000000D+01 -0.1757400922D+00
  0.1752000000D+01  0.1609340845D+00
  0.6882000000D+00  0.6034183167D+00
  0.2384000000D+00  0.3787651988D+00
 s   10  1.00
  0.1533000000D+05  0.0000000000D+00
  0.2299000000D+04  0.0000000000D+00
  0.5224000000D+03  0.0000000000D+00
  0.1473000000D+03  0.0000000000D+00
  0.4755000000D+02  0.0000000000D+00
  0.1676000000D+02  0.0000000000D+00
  0.6207000000D+01  0.0000000000D+00
  0.1752000000D+01  0.1000000000D+01
  0.6882000000D+00  0.0000000000D+00
  0.2384000000D+00  0.0000000000D+00
 s   10  1.00
  0.1533000000D+05  0.0000000000D+00
  0.2299000000D+04  0.0000000000D+00
  0.5224000000D+03  0.0000000000D+00
  0.1473000000D+03  0.0000000000D+00
  0.4755000000D+02  0.0000000000D+00
  0.1676000000D+02  0.0000000000D+00
  0.6207000000D+01  0.0000000000D+00
  0.1752000000D+01  0.0000000000D+00
  0.6882000000D+00  0.0000000000D+00
  0.2384000000D+00  0.1000000000D+01
 s    1  1.00
  0.7376000000D-01  0.1000000000D+01
 p    5  1.00
  0.3446000000D+02  0.1592799074D-01
  0.7749000000D+01  0.9973994203D-01
  0.2280000000D+01  0.3104918195D+00
  0.7156000000D+00  0.4910257146D+00
  0.2140000000D+00  0.3363368045D+00
 p    5  1.00
  0.3446000000D+02  0.0000000000D+00
  0.7749000000D+01  0.0000000000D+00
  0.2280000000D+01  0.0000000000D+00
  0.7156000000D+00  0.1000000000D+01
  0.2140000000D+00  0.0000000000D+00
 p    5  1.00
  0.3446000000D+02  0.0000000000D+00
  0.7749000000D+01  0.0000000000D+00
  0.2280000000D+01  0.0000000000D+00
  0.7156000000D+00  0.0000000000D+00
  0.2140000000D+00  0.1000000000D+01
 p    1  1.00
  0.5974000000D-01  0.1000000000D+01
 d    1  1.00
  0.2314000000D+01  0.1000000000D+01
 d    1  1.00
  0.6450000000D+00  0.1000000000D+01
 d    1  1.00
  0.2140000000D+00  0.1000000000D+01
 f    1  1.00
  0.1428000000D+01  0.1000000000D+01
 f    1  1.00
  0.5000000000D+00  0.1000000000D+01
  
   3 0
 s   10  1.00
  0.1533000000D+05  0.5079996682D-03
  0.2299000000D+04  0.3928997434D-02
  0.5224000000D+03  0.2024298678D-01
  0.1473000000D+03  0.7918094828D-01
  0.4755000000D+02  0.2306868493D+00
  0.1676000000D+02  0.4331177171D+00
  0.6207000000D+01  0.3502597712D+00
  0.1752000000D+01  0.4272797209D-01
  0.6882000000D+00 -0.8153994674D-02
  0.2384000000D+00  0.2380998445D-02
 s   10  1.00
  0.1533000000D+05 -0.1150000604D-03
  0.2299000000D+04 -0.8950004697D-03
  0.5224000000D+03 -0.4636002433D-02
  0.1473000000D+03 -0.1872400983D-01
  0.4755000000D+02 -0.5846303068D-01
  0.1676000000D+02 -0.1364630716D+00
  0.6207000000D+01 -0.1757400922D+00
  0.1752000000D+01  0.1609340845D+00
  0.6882000000D+00  0.6034183167D+00
  0.2384000000D+00  0.3787651988D+00
 s   10  1.00
  0.1533000000D+05  0.0000000000D+00
  0.2299000000D+04  0.0000000000D+00
  0.5224000000D+03  0.0000000000D+00
  0.1473000000D+03  0.0000000000D+00
  0.4755000000D+02  0.0000000000D+00
  0.1676000000D+02  0.0000000000D+00
  0.6207000000D+01  0.0000000000D+00
  0.1752000000D+01  0.1000000000D+01
  0.6882000000D+00  0.0000000000D+00
  0.2384000000D+00  0.0000000000D+00
 s   10  1.00
  0.1533000000D+05  0.0000000000D+00
  0.2299000000D+04  0.0000000000D+00
  0.5224000000D+03  0.0000000000D+00
  0.1473000000D+03  0.0000000000D+00
  0.4755000000D+02  0.0000000000D+00
  0.1676000000D+02  0.0000000000D+00
  0.6207000000D+01  0.0000000000D+00
  0.1752000000D+01  0.0000000000D+00
  0.6882000000D+00  0.0000000000D+00
  0.2384000000D+00  0.1000000000D+01
 s    1  1.00
  0.7376000000D-01  0.1000000000D+01
 p    5  1.00
  0.3446000000D+02  0.1592799074D-01
  0.7749000000D+01  0.9973994203D-01
  0.2280000000D+01  0.3104918195D+00
  0.7156000000D+00  0.4910257146D+00
  0.2140000000D+00  0.3363368045D+00
 p    5  1.00
  0.3446000000D+02  0.0000000000D+00
  0.7749000000D+01  0.0000000000D+00
  0.2280000000D+01  0.0000000000D+00
  0.7156000000D+00  0.1000000000D+01
  0.2140000000D+00  0.0000000000D+00
 p    5  1.00
  0.3446000000D+02  0.0000000000D+00
  0.7749000000D+01  0.0000000000D+00
  0.2280000000D+01  0.0000000000D+00
  0.7156000000D+00  0.0000000000D+00
  0.2140000000D+00  0.1000000000D+01
 p    1  1.00
  0.5974000000D-01  0.1000000000D+01
 d    1  1.00
  0.2314000000D+01  0.1000000000D+01
 d    1  1.00
  0.6450000000D+00  0.1000000000D+01
 d    1  1.00
  0.2140000000D+00  0.1000000000D+01
 f    1  1.00
  0.1428000000D+01  0.1000000000D+01
 f    1  1.00
  0.5000000000D+00  0.1000000000D+01
 
 
[MO]
 Sym=      1.1
 Ene=     -20.5931
 Spin= Alpha
 Occup=    2.000000
1 0.000815103469024
2 0.001341122108513
3 -0.000388311089802
4 0.001228856565894
5 0.000380002247094
6 0.0
7 0.0
8 0.0
9 0.0
10 0.0
11 0.0
12 0.0
13 0.0
14 0.0
15 0.0
16 0.0
17 0.0
18 0.000024547772834
19 0.000024547772834
20 -0.000049095545668
21 0.0
22 0.0
23 0.0
24 -0.000636673970977
25 -0.000636673970977
26 0.001273347941954
27 0.0
28 0.0
29 0.0
30 -0.000296735768382
31 -0.000296735768382
32 0.000593471536764
33 0.0
34 0.0
35 0.0
36 0.0
37 0.0
38 0.0
39 0.0
40 0.0
41 0.0
42 0.0
43 0.0
44 0.0
45 0.0
46 0.0
47 0.0
48 0.0
49 0.0
50 0.0
51 0.0
52 0.0
53 0.0
54 0.0
55 0.0
56 0.70502696869718
57 -0.036535633303284
58 0.001455591257387
59 0.000230986461178
60 -0.000717092122889
61 0.0
62 0.0
63 -0.013458517246858
64 0.0
65 0.0
66 0.004028793995956
67 0.0
68 0.0
69 0.000319827352652
70 0.0
71 0.0
72 -0.000443533699799
73 -0.000070822014405
74 -0.000070822014405
75 0.000141644028811
76 0.0
77 0.0
78 0.0
79 0.000256638982912
80 0.000256638982912
81 -0.000513277965824
82 0.0
83 0.0
84 0.0
85 -0.000409192453298
86 -0.000409192453298
87 0.000818384906597
88 0.0
89 0.0
90 0.0
91 0.0
92 0.0
93 0.000104748251134
94 0.0
95 0.0
96 -0.000070267263018
97 0.0
98 0.0
99 -0.000070267263018
100 0.0
101 0.0
102 0.0
103 0.000000598888410
104 0.0
105 0.0
106 -0.000000401746559
107 0.0
108 0.0
109 -0.000000401746559
110 0.0
111 0.70502696869718
112 -0.036535633303284
113 0.001455591257387
114 0.000230986461178
115 -0.000717092122889
116 0.0
117 0.0
118 0.013458517246858
119 0.0
120 0.0
121 -0.004028793995956
122 0.0
123 0.0
124 -0.000319827352652
125 0.0
126 0.0
127 0.000443533699799
128 -0.000070822014405
129 -0.000070822014405
130 0.000141644028811
131 0.0
132 0.0
133 0.0
134 0.000256638982912
135 0.000256638982912
136 -0.000513277965824
137 0.0
138 0.0
139 0.0
140 -0.000409192453298
141 -0.000409192453298
142 0.000818384906597
143 0.0
144 0.0
145 0.0
146 0.0
147 0.0
148 -0.000104748251134
149 0.0
150 0.0
151 0.000070267263018
152 0.0
153 0.0
154 0.000070267263018
155 0.0
156 0.0
157 0.0
158 -0.000000598888410
159 0.0
160 0.0
161 0.000000401746559
162 0.0
163 0.0
164 0.000000401746559
165 0.0
 Sym=      1.5
 Ene=     -20.5854
 Spin= Alpha
 Occup=    2.000000
1 0.0
2 0.0
3 0.0
4 0.0
5 0.0
6 0.0
7 0.0
8 -0.001890559782442
9 0.0
10 0.0
11 0.003878769478197
12 0.0
13 0.0
14 0.002565159240365
15 0.0
16 0.0
17 0.000120551450202
18 0.0
19 0.0
20 0.0
21 0.0
22 0.0
23 0.0
24 0.0
25 0.0
26 0.0
27 0.0
28 0.0
29 0.0
30 0.0
31 0.0
32 0.0
33 0.0
34 0.0
35 0.0
36 0.0
37 0.0
38 -0.000288080798201
39 0.0
40 0.0
41 0.000193250474337
42 0.0
43 0.0
44 0.000193250474337
45 0.0
46 0.0
47 0.0
48 0.000868341269024
49 0.0
50 0.0
51 -0.000582501031562
52 0.0
53 0.0
54 -0.000582501031562
55 0.0
56 0.70514584276128
57 -0.037634675832841
58 0.001331461243417
59 -0.001213860655327
60 -0.002175421629175
61 0.0
62 0.0
63 -0.015400508265776
64 0.0
65 0.0
66 0.003742114099470
67 0.0
68 0.0
69 0.001801301160435
70 0.0
71 0.0
72 0.000090964367604
73 -0.000112727698939
74 -0.000112727698939
75 0.000225455397879
76 0.0
77 0.0
78 0.0
79 0.000286915573185
80 0.000286915573185
81 -0.000573831146369
82 0.0
83 0.0
84 0.0
85 -0.000054530311857
86 -0.000054530311857
87 0.000109060623713
88 0.0
89 0.0
90 0.0
91 0.0
92 0.0
93 -0.000002474509962
94 0.0
95 0.0
96 0.000001659951746
97 0.0
98 0.0
99 0.000001659951746
100 0.0
101 0.0
102 0.0
103 0.000194907830183
104 0.0
105 0.0
106 -0.000130748147291
107 0.0
108 0.0
109 -0.000130748147291
110 0.0
111 -0.70514584276128
112 0.037634675832841
113 -0.001331461243417
114 0.001213860655327
115 0.002175421629175
116 0.0
117 0.0
118 -0.015400508265776
119 0.0
120 0.0
121 0.003742114099470
122 0.0
123 0.0
124 0.001801301160435
125 0.0
126 0.0
127 0.000090964367604
128 0.000112727698939
129 0.000112727698939
130 -0.000225455397879
131 0.0
132 0.0
133 0.0
134 -0.000286915573185
135 -0.000286915573185
136 0.000573831146369
137 0.0
138 0.0
139 0.0
140 0.000054530311857
141 0.000054530311857
142 -0.000109060623713
143 0.0
144 0.0
145 0.0
146 0.0
147 0.0
148 -0.000002474509962
149 0.0
150 0.0
151 0.000001659951746
152 0.0
153 0.0
154 0.000001659951746
155 0.0
156 0.0
157 0.0
158 0.000194907830183
159 0.0
160 0.0
161 -0.000130748147291
162 0.0
163 0.0
164 -0.000130748147291
165 0.0
 Sym=      2.1
 Ene=     -11.3898
 Spin= Alpha
 Occup=    2.000000
1 1.00006044012050
2 0.005759516812346
3 0.003864391240723
4 -0.004066518509967
5 0.000307634482930
6 0.0
7 0.0
8 0.0
9 0.0
10 0.0
11 0.0
12 0.0
13 0.0
14 0.0
15 0.0
16 0.0
17 0.0
18 -0.001009970360008
19 -0.001009970360008
20 0.002019940720015
21 0.0
22 0.0
23 0.0
24 0.001384017345079
25 0.001384017345079
26 -0.002768034690157
27 0.0
28 0.0
29 0.0
30 0.000363282298948
31 0.000363282298948
32 -0.000726564597896
33 0.0
34 0.0
35 0.0
36 0.0
37 0.0
38 0.0
39 0.0
40 0.0
41 0.0
42 0.0
43 0.0
44 0.0
45 0.0
46 0.0
47 0.0
48 0.0
49 0.0
50 0.0
51 0.0
52 0.0
53 0.0
54 0.0
55 0.0
56 0.000472899015307
57 -0.003269720617285
58 0.000067397730717
59 0.000168621870759
60 -0.001021086267245
61 0.0
62 0.0
63 -0.003060792710991
64 0.0
65 0.0
66 0.000462496706285
67 0.0
68 0.0
69 0.001636273935436
70 0.0
71 0.0
72 0.000442801899446
73 -0.000076134109997
74 -0.000076134109997
75 0.000152268219994
76 0.0
77 0.0
78 0.0
79 0.000506736511552
80 0.000506736511552
81 -0.001013473023104
82 0.0
83 0.0
84 0.0
85 0.000405400118667
86 0.000405400118667
87 -0.000810800237334
88 0.0
89 0.0
90 0.0
91 0.0
92 0.0
93 -0.000070469959329
94 0.0
95 0.0
96 0.000047272685829
97 0.0
98 0.0
99 0.000047272685829
100 0.0
101 0.0
102 0.0
103 0.000822444020311
104 0.0
105 0.0
106 -0.000551712221131
107 0.0
108 0.0
109 -0.000551712221131
110 0.0
111 0.000472899015307
112 -0.003269720617285
113 0.000067397730717
114 0.000168621870759
115 -0.001021086267245
116 0.0
117 0.0
118 0.003060792710991
119 0.0
120 0.0
121 -0.000462496706285
122 0.0
123 0.0
124 -0.001636273935436
125 0.0
126 0.0
127 -0.000442801899446
128 -0.000076134109997
129 -0.000076134109997
130 0.000152268219994
131 0.0
132 0.0
133 0.0
134 0.000506736511552
135 0.000506736511552
136 -0.001013473023104
137 0.0
138 0.0
139 0.0
140 0.000405400118667
141 0.000405400118667
142 -0.000810800237334
143 0.0
144 0.0
145 0.0
146 0.0
147 0.0
148 0.000070469959329
149 0.0
150 0.0
151 -0.000047272685829
152 0.0
153 0.0
154 -0.000047272685829
155 0.0
156 0.0
157 0.0
158 -0.000822444020311
159 0.0
160 0.0
161 0.000551712221131
162 0.0
163 0.0
164 0.000551712221131
165 0.0
 Sym=      2.5
 Ene=      -1.3188
 Spin= Alpha
 Occup=    1.998657
1 0.0
2 0.0
3 0.0
4 0.0
5 0.0
6 0.0
7 0.0
8 0.12105392883895
9 0.0
10 0.0
11 -0.087685115822462
12 0.0
13 0.0
14 -0.062450656705921
15 0.0
16 0.0
17 -0.001331795076347
18 0.0
19 0.0
20 0.0
21 0.0
22 0.0
23 0.0
24 0.0
25 0.0
26 0.0
27 0.0
28 0.0
29 0.0
30 0.0
31 0.0
32 0.0
33 0.0
34 0.0
35 0.0
36 0.0
37 0.0
38 -0.002916320711238
39 0.0
40 0.0
41 0.001956327406355
42 0.0
43 0.0
44 0.001956327406355
45 0.0
46 0.0
47 0.0
48 0.006774698582951
49 0.0
50 0.0
51 -0.004544605967565
52 0.0
53 0.0
54 -0.004544605967565
55 0.0
56 0.034723202016023
57 0.66181595489971
58 -0.004155137690902
59 0.044142950052667
60 0.035488547569279
61 0.0
62 0.0
63 0.17405435272668
64 0.0
65 0.0
66 -0.017086298967499
67 0.0
68 0.0
69 -0.027722372188014
70 0.0
71 0.0
72 -0.001523408975030
73 -0.000160299595263
74 -0.000160299595263
75 0.000320599190526
76 0.0
77 0.0
78 0.0
79 -0.004200599846566
80 -0.004200599846566
81 0.008401199693131
82 0.0
83 0.0
84 0.0
85 -0.002046073902830
86 -0.002046073902830
87 0.004092147805659
88 0.0
89 0.0
90 0.0
91 0.0
92 0.0
93 -0.001309494591720
94 0.0
95 0.0
96 0.000878435676976
97 0.0
98 0.0
99 0.000878435676976
100 0.0
101 0.0
102 0.0
103 -0.001357783525683
104 0.0
105 0.0
106 0.000910828878647
107 0.0
108 0.0
109 0.000910828878647
110 0.0
111 -0.034723202016023
112 -0.66181595489971
113 0.004155137690902
114 -0.044142950052667
115 -0.035488547569279
116 0.0
117 0.0
118 0.17405435272668
119 0.0
120 0.0
121 -0.017086298967499
122 0.0
123 0.0
124 -0.027722372188014
125 0.0
126 0.0
127 -0.001523408975030
128 0.000160299595263
129 0.000160299595263
130 -0.000320599190526
131 0.0
132 0.0
133 0.0
134 0.004200599846566
135 0.004200599846566
136 -0.008401199693131
137 0.0
138 0.0
139 0.0
140 0.002046073902830
141 0.002046073902830
142 -0.004092147805659
143 0.0
144 0.0
145 0.0
146 0.0
147 0.0
148 -0.001309494591720
149 0.0
150 0.0
151 0.000878435676976
152 0.0
153 0.0
154 0.000878435676976
155 0.0
156 0.0
157 0.0
158 -0.001357783525683
159 0.0
160 0.0
161 0.000910828878647
162 0.0
163 0.0
164 0.000910828878647
165 0.0
 Sym=      3.1
 Ene=      -1.3273
 Spin= Alpha
 Occup=    1.998552
1 -0.006295402906264
2 0.11764219453858
3 -0.001476198824570
4 -0.062498734334671
5 -0.005327963548142
6 0.0
7 0.0
8 0.0
9 0.0
10 0.0
11 0.0
12 0.0
13 0.0
14 0.0
15 0.0
16 0.0
17 0.0
18 -0.008725487071492
19 -0.008725487071492
20 0.017450974142984
21 0.0
22 0.0
23 0.0
24 -0.006596185807086
25 -0.006596185807086
26 0.013192371614172
27 0.0
28 0.0
29 0.0
30 0.009324728426998
31 0.009324728426998
32 -0.018649456853996
33 0.0
34 0.0
35 0.0
36 0.0
37 0.0
38 0.0
39 0.0
40 0.0
41 0.0
42 0.0
43 0.0
44 0.0
45 0.0
46 0.0
47 0.0
48 0.0
49 0.0
50 0.0
51 0.0
52 0.0
53 0.0
54 0.0
55 0.0
56 0.032659534661360
57 0.67277418212018
58 -0.002332185412922
59 0.003209028927849
60 0.007263698889448
61 0.0
62 0.0
63 0.15058150612888
64 0.0
65 0.0
66 -0.004892469503088
67 0.0
68 0.0
69 0.022710460890881
70 0.0
71 0.0
72 0.010757553131626
73 -0.000211214497488
74 -0.000211214497488
75 0.000422428994975
76 0.0
77 0.0
78 0.0
79 0.000119377826680
80 0.000119377826680
81 -0.000238755653359
82 0.0
83 0.0
84 0.0
85 0.005584348170272
86 0.005584348170272
87 -0.011168696340543
88 0.0
89 0.0
90 0.0
91 0.0
92 0.0
93 -0.000451134872919
94 0.0
95 0.0
96 0.000302630472860
97 0.0
98 0.0
99 0.000302630472860
100 0.0
101 0.0
102 0.0
103 0.001522176867436
104 0.0
105 0.0
106 -0.001021107284809
107 0.0
108 0.0
109 -0.001021107284809
110 0.0
111 0.032659534661360
112 0.67277418212018
113 -0.002332185412922
114 0.003209028927849
115 0.007263698889448
116 0.0
117 0.0
118 -0.15058150612888
119 0.0
120 0.0
121 0.004892469503088
122 0.0
123 0.0
124 -0.022710460890881
125 0.0
126 0.0
127 -0.010757553131626
128 -0.000211214497488
129 -0.000211214497488
130 0.000422428994975
131 0.0
132 0.0
133 0.0
134 0.000119377826680
135 0.000119377826680
136 -0.000238755653359
137 0.0
138 0.0
139 0.0
140 0.005584348170272
141 0.005584348170272
142 -0.011168696340543
143 0.0
144 0.0
145 0.0
146 0.0
147 0.0
148 0.000451134872919
149 0.0
150 0.0
151 -0.000302630472860
152 0.0
153 0.0
154 -0.000302630472860
155 0.0
156 0.0
157 0.0
158 -0.001522176867436
159 0.0
160 0.0