[Molden Format]
[Molpro variables]
_NUMVAR=  784.0000000000000    
_AVOGAD= 0.6022136736000000E+24
_BOLTZ= 0.1380658000000000E-22
_CLIGHT=  29979245800.00000    
_EV2006= 0.3674930886769165E-01
_EV= 0.3674932534394180E-01
_ENULL= 0.8854187817000000E-11
_KJOULE= 0.3808798324128737E-03
_KJOULE/MOL= 0.3808798324128737E-03
_CM= 0.4556335267302901E-05
_CM-1= 0.4556335267302901E-05
_DEB2SI= 0.3335641000000000E-29
_AMU2AU=  1822.888390000000    
_KCAL= 0.1593601117815568E-02
_KCAL/MOL= 0.1593601117815568E-02
_KELVIN2006= 0.3166828861084835E-05
_KELVIN= 0.3166814820820034E-05
_JOULE= 0.4359748200000000E-17
_HERTZ2006= 0.1519829850815779E-15
_HERTZ= 0.1519829846011223E-15
_HZ2006= 0.1519829850815779E-15
_HZ= 0.1519829846011223E-15
_JPCAL=  4.184000000000000    
_PLANCK= 0.6626075540000000E-33
_TOA2006= 0.5291772490000000    
_TOA= 0.5291772090000000    
_TOANG2006= 0.5291772490000000    
_TOANG= 0.5291772090000000    
_TORAD= 0.1745329251994330E-01
_TOCM=  219474.6306700000    
_TODEBYE=  2.541580000000000    
_TOEV2006=  27.21139610000000    
_TOE= 0.4803242000000000E-09
_TOEV=  27.21138390000000    
_TOHERTZ2006=  6579683899900000.    
_TOHERTZ=  6579683920700000.    
_TOHZ2006=  6579683899900000.    
_TOHZ=  6579683920700000.    
_TOK2006=  315773.3000000000    
_TOK=  315774.7000000000    
_TOKCAL=  627.5096000000000    
_TOKELVIN2006=  315773.3000000000    
_TOKELVIN=  315774.7000000000    
_TOKJ=  2625.500000000000    
_TOKJOULE=  2625.500000000000    
_TOKG= 0.1660565586000000E-26
_ANG2006=  1.889725988578923    
_ANG=  1.889726131421507    
_ANGSTROM2006=  1.889725988578923    
_ANGSTROM=  1.889726131421507    
_RPAREF=  0.000000000000000    
_RPADISS=  0.000000000000000    
_IGNORE_UNDEF=  2.000000000000000    
_STRICTCHECK=  0.000000000000000    
_SEW_ONEEL=  0.000000000000000    
_CPPDONE=FALSE
_DKROLL_DONE=  0.000000000000000    
_FOCKDONE=  0.000000000000000    
_GRADONE=FALSE
_HESSDONE=FALSE
_INTDONE=TRUE
_SCFDONE=TRUE
_MODUL_BLOCK=FALSE
_MODUL_CUDA=FALSE
_MODUL_SLATER=FALSE
_MODUL_MRCC=FALSE
_MODUL_NBO6=FALSE
_MODUL_NECI=TRUE
_MODUL_AIMS=TRUE
_MRCC_EXEC=
_FITC_AO_SAVED=FALSE
_FITC_MO_SAVED=FALSE
_SHARED_FS=TRUE
_LSTYP=SEWARD
_INTYP=INTS
_GEOMTYP=ZMAT
_GRADTYP=ALASKA
_DIRECT=FALSE
_DKHO= -1.000000000000000    
_SYNCM=  0.000000000000000    
_BASIS=AUG-CC-PVTZ
_ZORIENT=  1.000000000000000    
_NELEC=  2.000000000000000    
!SPIN=  0.000000000000000    
_QSDSTEP=  0.000000000000000    
_QSDIRC=  0.000000000000000    
_PROGRAM=CI
_CPUSTEP= 0.5100000000000000    
_SYSSTEP= 0.8000000000000002E-01
_WALLSTEP=  1.240000000000000    
!DFMP2=  0.000000000000000    
!DFSCF=  0.000000000000000    
!SCSGRD=  0.000000000000000    
_BASINP=  610.0000000000000    
_CPUTOT=  1.200000000000000    
_DFTEXFAC=  1.000000000000000    
_DMX=  0.000000000000000    
_DMY=  0.000000000000000    
_DMZ=  0.000000000000000    
_DMX_SCF=-0.3942705510780445E-15
_DMY_SCF=-0.2364969600516495E-15
_DMZ_SCF=  0.000000000000000    
_EHOMO=-0.5944013401483170    
_ELUMO= 0.5256321330454693E-01
_ENERGD= -1.172632556137524    
_ENERGD0= -1.172632556137524    
_ENERGD1= -1.172632556137524    
_ENERGD2= -1.172632556137524    
_ENERGP= -1.172632556137524    
_ENERGP0= -1.172632556137524    
_ENERGP1= -1.172632556137524    
_ENERGP2= -1.172632556137524    
_ENERGR= -1.151473251894395    
_ENERGY= -1.172632556137524    
_ENUC= 0.7142857142857143    
_GRADEXFAC=  9999.000000000000    
_GRADMETHOD=FALSE
_NMRMETHOD=  0.000000000000000    
!GRID_FREEZE= -1.000000000000000    
_ITERATIONS=  4.000000000000000    
_LASTNELEC=  2.000000000000000    
_LASTSPIN=  0.000000000000000    
_LASTSYM=  1.000000000000000    
_MPP_PROG=  1.000000000000000    
_NPROC_MPP=  24.00000000000000    
_NPROC_MPPX=  24.00000000000000    
_NPROC_SMP=  1.000000000000000    
_NUMSTEP=  0.000000000000000    
_ORBITAL=  2140.200000000000    
_PI=  3.141592653589793    
!MCACT=  1.000000000000000    
!MCCLOSED=  0.000000000000000    
!MCFREEZE=  0.000000000000000    
!MCMS2=  0.000000000000000    
!MCNEL=  2.000000000000000    
!MCNSTSYM=  1.000000000000000    
!MCSTATE=  1.000000000000000    
!MCSYM=  1.000000000000000    
!MCWEIGHT=  1.000000000000000    
_SEIG_MIN= 0.5419780706857531E-04
_SEWPROP=TRUE
_STATUS=  1.000000000000000    
_SYSTOT= 0.3800000000000000    
_VERSION=  2012001.000000000    
_WALLTOT=  4.600000000000000    
_DATE=04-Jun-19
_LASTORB=MCSCF
_MACHINE=Linux-4.4.103-6.38_4.0.153-cray_ari_c/nid12801(x86_64) 64 bit mpp version
_OUTPUT=/global/cscratch1/sd/rbello/Quantum_Chem/molpro.xml
_PGROUP=Cs
_TIME=13:56:12
_LIBMOL=/global/u2/s/swowner/zz217/molpro/2012.1/molprop_2012_1_Linux_x86_64_i8/lib/
!VIBCNT=  0.000000000000000    
!RGHFCNT=  0.000000000000000    
!SURFREC=  0.000000000000000    
!POLYREC=  0.000000000000000    
!DIPREC=  0.000000000000000    
!VSCFREC=  0.000000000000000    
!VCIREC=  0.000000000000000    
!PVCIREC=  0.000000000000000    
!VMP2REC=  0.000000000000000    
!VMCSCFREC=  0.000000000000000    
!VMRCIREC=  0.000000000000000    
!VIBINFO=  0.000000000000000    
!GAREC=  0.000000000000000    
!SCFORB=  21002.00000000000    
!MCORB=  21402.00000000000    
!CIOCC=  1.000000000000000    
!CICORE=  0.000000000000000    
!CICLOS=  0.000000000000000    
!CIISTSYM=  1.000000000000000    
!CIISTMS2=  0.000000000000000    
!CIISTNEL=  2.000000000000000    
!NEWMOL= -1.000000000000000    
!NEWSYM= -1.000000000000000    
_SLFILES=slscratch
_NGSSTO=  9.000000000000000    
_SIN=SIN
_COS=COS
_TAN=TAN
_ACOS=ACOS
_ASIN=ASIN
_ATAN=ATAN
_COSH=COSH
_SINH=SINH
_TANH=TANH
_ABS=ABS
_MOD=MOD
_ERF=ERF
_REFC=REFC
_ERFC=ERFC
_HYPOT=HYPOT
_J0=J0
_J1=J1
_JN=JN
_GAMMA=GAMMA
_LGAMMA=LGAMMA
_Y0=Y0
_Y1=Y1
_YN=YN
_EXP=EXP
_LOG=LOG
_LOG10=LOG10
_SQRT=SQRT
_INT=INT
_NINT=NINT
_MAX=MAX
_MIN=MIN
_COSMO=  0.000000000000000    
_COSMOIT=  0.000000000000000    
_COSMOES=  0.000000000000000    
_COSMOEDS=  0.000000000000000    
_COSMOEC=  0.000000000000000    
_COSMOEDCORR=  0.000000000000000    
_FEPSI=  1.000000000000000    
_SL_IsMM=  0.000000000000000    
_SL_NSYM=  2.000000000000000    
_SL_System_BitSw=  0.000000000000000    
_SL_Unique_atoms=  0.000000000000000    
_SL_GRAD=  0.000000000000000    
_SL_MAXUPD_Hess=  5.000000000000000    
_SL_N_PRINT_COD=  5.000000000000000    
_SL_PRINT_CODES=  0.000000000000000    
_SL_BasType=  0.000000000000000    
_SL_Energy_Pred=  0.000000000000000    
_SL_New_Coords=  0.000000000000000    
_SL_Total_Nuclea=  0.000000000000000    
_SL_Highest_Mltp=  0.000000000000000    
_SL_Ref_Geom=  0.000000000000000    
_SL_Symmetry_ope=  1.000000000000000    
_SL_agrad=  0.000000000000000    
_SL_GrdMax=  0.000000000000000    
_SL_GrdNorm=  0.000000000000000    
_SL_GrdRMS=  0.000000000000000    
_SL_Hss_Q=  0.000000000000000    
_SL_Hss_X=  0.000000000000000    
_SL_BMxOld=  0.000000000000000    
_SL_KtB=  0.000000000000000    
!LATTICE= -1.000000000000000    
!NEWLATTICE=  0.000000000000000    
!LATGRAD_VAR=FALSE
!SEW_LATTICE=  1.000000000000000    
!LOCAL=  0.000000000000000    
!SAVEDOM= -1.000000000000000    
!RESTDOM= -1.000000000000000    
!SAVEDOM_HF= -1.000000000000000    
!RESTDOM_HF= -1.000000000000000    
!HESSREC=  0.000000000000000    
!FREQREC=  0.000000000000000    
!NMODREC=  0.000000000000000    
!GTASKS=  0.000000000000000    
!HTASKS=  0.000000000000000    
!THRCHG= 0.1000000000000000    
!DEBUG= -1.000000000000000    
!CFIT_CPHF=  0.000000000000000    
!RDOMAUX_CPHF=  3.000000000000000    
!THRAO_CPHF= 0.1000000000000000E-09
!THRMO_CPHF= 0.1000000000000000E-08
!THROV_CPHF= 0.1000000000000000E-11
!THRSW_CPHF= 0.1000000000000000E-09
!THRPROD_CPHF= 0.1000000000000000E-08
!THRAOPR_CPHF= 0.1000000000000000E-11
!CFIT_SCFGRD=  0.000000000000000    
!RDOMAUX_SCFGRD=  5.000000000000000    
!THRAO_SCFGRD= 0.1000000000000000E-09
!THRMO_SCFGRD= 0.1000000000000000E-08
!THROV_SCFGRD= 0.1000000000000000E-11
!THRSW_SCFGRD= 0.1000000000000000E-09
!THRPROD_SCFGRD= 0.1000000000000000E-08
!THRAOPR_SCFGRD= 0.1000000000000000E-11
!LOCFIT_SCF=  0.000000000000000    
!LOCFIT_MP2= -1.000000000000000    
_RIDOM=  0.000000000000000    
!CC2_METHOD=  0.000000000000000    
_BASIS2006=FALSE
_SVDDEL= -1.000000000000000    
_SVDDELA= -1.000000000000000    
_SVDDELP= -1.000000000000000    
_SVDDELF= -1.000000000000000    
_SVDDELS= -1.000000000000000    
_SVDDEL_ABS= -1.000000000000000    
_SVDDELA_ABS= -1.000000000000000    
_SVDDELP_ABS= -1.000000000000000    
_SVDDELF_ABS= -1.000000000000000    
_SVDDELS_ABS= -1.000000000000000    
_MAXBASIS=  0.000000000000000    
!OPT_CONICAL=  0.000000000000000    
!CLEARSP_JGRID=  0.000000000000000    
_4EXT_NDISKS=  1.000000000000000    
_C0= 0.9920066623869847    
_C0R= 0.9919196842133895    
!ZMP=  0.000000000000000    
_MAXIT_ZMP=  500.0000000000000    
_MAXDIS_ZMP=  100.0000000000000    
_ACCU_ZMP=  14.00000000000000    
_SHIFTA_ZMP= -100.0000000000000    
!EMBEDFLAG=  1.000000000000000    
!EMBED=FALSE
!EMBED_F12=FALSE
!EMBEDNUC=  0.000000000000000    
_EMBEDENERGY=  0.000000000000000    
_KSPACETIME=  0.000000000000000    
_RSPACETIME=  0.000000000000000    
!EMBED_DFC=FALSE
!NUM_VOIDS=  0.000000000000000    
_IBODY=  0.000000000000000    
_EMBE_TOTAL=  0.000000000000000    
_EMBE_HF=  0.000000000000000    
_EMBE_CORR=  0.000000000000000    
!EDFT=  0.000000000000000    
_IFASTLATGRAD=  0.000000000000000    
_SINDEX=  0.000000000000000    
R=  1.400000000000000    
GX1=  0.000000000000000    
GY1=  0.000000000000000    
GZ1=-0.7000000000000000    
GX2=  0.000000000000000    
GY2=  0.000000000000000    
GZ2= 0.7000000000000000    
E= -1.172632556137524    
[Atoms] Angs
H     1    1         0.0000000000        0.0000000000       -0.3704240463
H     2    1         0.0000000000        0.0000000000        0.3704240463
[GTO]
  1 0
 s    5  1.00
  0.3387000000D+02  0.6067999217D-02
  0.5095000000D+01  0.4530799416D-01
  0.1159000000D+01  0.2028219738D+00
  0.3258000000D+00  0.5039029350D+00
  0.1027000000D+00  0.3834209505D+00
 s    5  1.00
  0.3387000000D+02  0.0000000000D+00
  0.5095000000D+01  0.0000000000D+00
  0.1159000000D+01  0.0000000000D+00
  0.3258000000D+00  0.1000000000D+01
  0.1027000000D+00  0.0000000000D+00
 s    5  1.00
  0.3387000000D+02  0.0000000000D+00
  0.5095000000D+01  0.0000000000D+00
  0.1159000000D+01  0.0000000000D+00
  0.3258000000D+00  0.0000000000D+00
  0.1027000000D+00  0.1000000000D+01
 s    1  1.00
  0.2526000000D-01  0.1000000000D+01
 p    1  1.00
  0.1407000000D+01  0.1000000000D+01
 p    1  1.00
  0.3880000000D+00  0.1000000000D+01
 p    1  1.00
  0.1020000000D+00  0.1000000000D+01
 d    1  1.00
  0.1057000000D+01  0.1000000000D+01
 d    1  1.00
  0.2470000000D+00  0.1000000000D+01
  
  2 0
 s    5  1.00
  0.3387000000D+02  0.6067999217D-02
  0.5095000000D+01  0.4530799416D-01
  0.1159000000D+01  0.2028219738D+00
  0.3258000000D+00  0.5039029350D+00
  0.1027000000D+00  0.3834209505D+00
 s    5  1.00
  0.3387000000D+02  0.0000000000D+00
  0.5095000000D+01  0.0000000000D+00
  0.1159000000D+01  0.0000000000D+00
  0.3258000000D+00  0.1000000000D+01
  0.1027000000D+00  0.0000000000D+00
 s    5  1.00
  0.3387000000D+02  0.0000000000D+00
  0.5095000000D+01  0.0000000000D+00
  0.1159000000D+01  0.0000000000D+00
  0.3258000000D+00  0.0000000000D+00
  0.1027000000D+00  0.1000000000D+01
 s    1  1.00
  0.2526000000D-01  0.1000000000D+01
 p    1  1.00
  0.1407000000D+01  0.1000000000D+01
 p    1  1.00
  0.3880000000D+00  0.1000000000D+01
 p    1  1.00
  0.1020000000D+00  0.1000000000D+01
 d    1  1.00
  0.1057000000D+01  0.1000000000D+01
 d    1  1.00
  0.2470000000D+00  0.1000000000D+01
 
 
[MO]
 Sym=      1.1
 Ene=       0.0000
 Spin= Alpha
 Occup=    1.964148
1 0.80308056321056
2 -0.11815569374875
3 -0.17812542213239
4 -0.001128752198105
5 0.000000000000000
6 -0.000000000000000
7 0.012108045493983
8 -0.000000000000000
9 0.000000000000000
10 0.011363746866995
11 0.000000000000000
12 -0.000000000000000
13 0.006687417134802
14 -0.000256909434781
15 -0.000256909434781
16 0.000513818869562
17 0.0
18 0.000000000000000
19 -0.000000000000000
20 0.001031445948088
21 0.001031445948088
22 -0.002062891896176
23 0.0
24 -0.000000000000000
25 0.000000000000000
26 0.80308056321056
27 -0.11815569374875
28 -0.17812542213239
29 -0.001128752198105
30 0.000000000000000
31 -0.000000000000000
32 -0.012108045493983
33 -0.000000000000000
34 0.000000000000000
35 -0.011363746866995
36 0.000000000000000
37 -0.000000000000000
38 -0.006687417134802
39 -0.000256909434781
40 -0.000256909434781
41 0.000513818869562
42 0.0
43 -0.000000000000000
44 0.000000000000000
45 0.001031445948088
46 0.001031445948088
47 -0.002062891896176
48 0.0
49 0.000000000000000
50 -0.000000000000000
 Sym=      1.2
 Ene=       0.0000
 Spin= Alpha
 Occup=    0.019929
1 1.53701382707049
2 -0.43011308955576
3 -1.45518473213608
4 -0.032211113210061
5 0.000000000000000
6 -0.000000000000000
7 -0.051896356254226
8 -0.000000000000000
9 0.000000000000000
10 -0.19521391419235
11 -0.000000000000000
12 0.000000000000000
13 -0.22848695974602
14 0.020488478880302
15 0.020488478880302
16 -0.040976957760604
17 0.0
18 0.000000000000000
19 -0.000000000000000
20 0.017812297103542
21 0.017812297103542
22 -0.035624594207085
23 0.0
24 -0.000000000000000
25 0.000000000000000
26 -1.53701382707049
27 0.43011308955576
28 1.45518473213608
29 0.032211113210061
30 -0.000000000000000
31 0.000000000000000
32 -0.051896356254226
33 0.000000000000000
34 -0.000000000000000
35 -0.19521391419235
36 0.000000000000000
37 -0.000000000000000
38 -0.22848695974602
39 -0.020488478880302
40 -0.020488478880302
41 0.040976957760604
42 0.0
43 0.000000000000000
44 -0.000000000000000
45 -0.017812297103542
46 -0.017812297103542
47 0.035624594207085
48 0.0
49 -0.000000000000000
50 0.000000000000000
 Sym=      2.1
 Ene=       0.0000
 Spin= Alpha
 Occup=    0.005990
1 -1.59771186795474
2 0.90602704546133
3 1.00503684190146
4 -0.018853309356467
5 0.000000000000000
6 -0.000000000000000
7 -0.12907258944921
8 0.000000000000000
9 -0.000000000000000
10 -0.26025955643283
11 0.000000000000000
12 -0.000000000000000
13 -0.071563518645761
14 0.026831241895185
15 0.026831241895185
16 -0.053662483790370
17 -0.000000000000000
18 0.000000000000000
19 -0.000000000000000
20 0.050944714167983
21 0.050944714167983
22 -0.10188942833597
23 0.000000000000000
24 0.000000000000000
25 -0.000000000000000
26 -1.59771186795474
27 0.90602704546133
28 1.00503684190146
29 -0.018853309356467
30 0.000000000000000
31 -0.000000000000000
32 0.12907258944921
33 0.000000000000000
34 -0.000000000000000
35 0.26025955643283
36 0.000000000000000
37 -0.000000000000000
38 0.071563518645761
39 0.026831241895185
40 0.026831241895185
41 -0.053662483790370
42 -0.000000000000000
43 -0.000000000000000
44 0.000000000000000
45 0.050944714167983
46 0.050944714167983
47 -0.10188942833597
48 0.000000000000000
49 -0.000000000000000
50 0.000000000000000
 Sym=      3.1
 Ene=       0.0000
 Spin= Alpha
 Occup=    0.004336
1 -0.000000000000000
2 0.000000000000000
3 0.000000000000000
4 -0.000000000000000
5 0.16010958973504
6 0.008886979572187
7 0.000000000000000
8 0.38082423425872
9 0.021137879349086
10 0.000000000000000
11 0.041421147118545
12 0.002299105811889
13 -0.000000000000000
14 -0.000000000000000
15 -0.000000000000000
16 0.000000000000000
17 0.000000000000000
18 0.066234996709586
19 0.003676413534605
20 0.000000000000000
21 0.000000000000000
22 -0.000000000000000
23 -0.000000000000000
24 0.045935375418859
25 0.002549670782766
26 -0.000000000000000
27 0.000000000000000
28 0.000000000000000
29 -0.000000000000000
30 0.16010958973504
31 0.008886979572187
32 -0.000000000000000
33 0.38082423425872
34 0.021137879349086
35 -0.000000000000000
36 0.041421147118545
37 0.002299105811889
38 0.000000000000000
39 -0.000000000000000
40 -0.000000000000000
41 0.000000000000000
42 0.000000000000000
43 -0.066234996709586
44 -0.003676413534605
45 0.000000000000000
46 0.000000000000000
47 -0.000000000000000
48 -0.000000000000000
49 -0.045935375418859
50 -0.002549670782766
 Sym=      4.1
 Ene=       0.0000
 Spin= Alpha
 Occup=    0.004336
1 -0.000000000000001
2 0.000000000000001
3 0.000000000000000
4 0.000000000000000
5 -0.008886979572187
6 0.16010958973504
7 -0.000000000000000
8 -0.021137879349085
9 0.38082423425872
10 0.000000000000000
11 -0.002299105811889
12 0.041421147118545
13 -0.000000000000001
14 -0.000000000000000
15 -0.000000000000000
16 0.000000000000000
17 -0.000000000000000
18 -0.003676413534605
19 0.066234996709586
20 0.000000000000000
21 0.000000000000000
22 -0.000000000000000
23 0.000000000000000
24 -0.002549670782766
25 0.045935375418859
26 -0.000000000000001
27 0.000000000000001
28 0.000000000000000
29 0.000000000000000
30 -0.008886979572187
31 0.16010958973504
32 0.000000000000000
33 -0.021137879349085
34 0.38082423425872
35 -0.000000000000000
36 -0.002299105811889
37 0.041421147118545
38 0.000000000000001
39 -0.000000000000000
40 -0.000000000000000
41 0.000000000000000
42 -0.000000000000000
43 0.003676413534605
44 -0.066234996709586
45 0.000000000000000
46 0.000000000000000
47 -0.000000000000000
48 0.000000000000000
49 0.002549670782766
50 -0.045935375418859
 Sym=      5.1
 Ene=       0.0000
 Spin= Alpha
 Occup=    0.000196
1 2.60054742337213
2 -1.27978957417219
3 -1.21350260086880
4 0.015111389316200
5 -0.000000000000000
6 -0.000000000000000
7 -0.31841480507002
8 -0.000000000000000
9 0.000000000000000
10 -0.56290508260572
11 0.000000000000000
12 -0.000000000000000
13 -0.10594411961582
14 0.009382031436364
15 0.009382031436364
16 -0.018764062872727
17 0.000000000000000
18 -0.000000000000000
19 0.000000000000000
20 0.029433065823912
21 0.029433065823912
22 -0.058866131647825
23 0.000000000000000
24 0.000000000000000
25 0.000000000000000
26 2.60054742337213
27 -1.27978957417219
28 -1.21350260086880
29 0.015111389316200
30 -0.000000000000000
31 -0.000000000000000
32 0.31841480507002
33 -0.000000000000000
34 0.000000000000000
35 0.56290508260572
36 0.000000000000000
37 -0.000000000000000
38 0.10594411961582
39 0.009382031436364
40 0.009382031436364
41 -0.018764062872727
42 0.000000000000000
43 0.000000000000000
44 -0.000000000000000
45 0.029433065823912
46 0.029433065823912
47 -0.058866131647825
48 0.000000000000000
49 -0.000000000000000
50 -0.000000000000000
 Sym=      2.2
 Ene=       0.0000
 Spin= Alpha
 Occup=    0.000190
1 -4.17972511730246
2 3.21057084519166
3 2.95043012514172
4 -0.033127886715918
5 -0.000000000000000
6 0.000000000000000
7 -0.22903904446993
8 -0.000000000000000
9 0.000000000000000
10 -0.016150329346675
11 -0.000000000000000
12 0.000000000000000
13 0.21521480943221
14 0.002501723886392
15 0.002501723886392
16 -0.005003447772785
17 0.000000000000000
18 -0.000000000000000
19 0.000000000000000
20 -0.010568949880667
21 -0.010568949880667
22 0.021137899761335
23 -0.000000000000000
24 -0.000000000000000
25 0.000000000000000
26 4.17972511730246
27 -3.21057084519166
28 -2.95043012514172
29 0.033127886715918
30 0.000000000000000
31 -0.000000000000000
32 -0.22903904446993
33 0.000000000000000
34 -0.000000000000000
35 -0.016150329346675
36 0.000000000000000
37 -0.000000000000000
38 0.21521480943221
39 -0.002501723886392
40 -0.002501723886392
41 0.005003447772785
42 -0.000000000000000
43 -0.000000000000000
44 0.000000000000000
45 0.010568949880667
46 0.010568949880667
47 -0.021137899761335
48 0.000000000000000
49 -0.000000000000000
50 0.000000000000000
 Sym=      3.2
 Ene=       0.0000
 Spin= Alpha
 Occup=    0.000146
1 -0.000000000000000
2 -0.000000000000006
3 -0.000000000000001
4 0.000000000000001
5 0.47483666897685
6 -0.060807838083759
7 0.000000000000000
8 0.93590967790180
9 -0.11985309449143
10 -0.000000000000003
11 0.18181846861569
12 -0.023283770446884
13 -0.000000000000000
14 0.000000000000000
15 0.000000000000000
16 -0.000000000000000
17 -0.000000000000000
18 0.055461379548315
19 -0.007102413962137
20 0.000000000000000
21 0.000000000000000
22 -0.000000000000000
23 0.000000000000000
24 0.13890267260650
25 -0.017787950630387
26 0.000000000000000
27 0.000000000000006
28 0.000000000000001
29 -0.000000000000001
30 -0.47483666897685
31 0.060807838083759
32 0.000000000000000
33 -0.93590967790180
34 0.11985309449143
35 -0.000000000000003
36 -0.18181846861569
37 0.023283770446884
38 -0.000000000000000
39 -0.000000000000000
40 -0.000000000000000
41 0.000000000000000
42 0.000000000000000
43 0.055461379548315
44 -0.007102413962137
45 -0.000000000000000
46 -0.000000000000000
47 0.000000000000000
48 -0.000000000000000
49 0.13890267260650
50 -0.017787950630387
 Sym=      4.2
 Ene=       0.0000
 Spin= Alpha
 Occup=    0.000146
1 0.000000000000000
2 0.000000000000003
3 0.000000000000002
4 0.000000000000000
5 0.060807838083759
6 0.47483666897685
7 -0.000000000000000
8 0.11985309449143
9 0.93590967790180
10 0.000000000000002
11 0.023283770446884
12 0.18181846861570
13 0.000000000000000
14 -0.000000000000000
15 -0.000000000000000
16 0.000000000000000
17 -0.000000000000000
18 0.007102413962137
19 0.055461379548315
20 -0.000000000000000
21 -0.000000000000000
22 0.000000000000000
23 0.000000000000000
24 0.017787950630386
25 0.13890267260650
26 -0.000000000000000
27 -0.000000000000003
28 -0.000000000000002
29 -0.000000000000000
30 -0.060807838083759
31 -0.47483666897685
32 -0.000000000000000
33 -0.11985309449143
34 -0.93590967790180
35 0.000000000000002
36 -0.023283770446884
37 -0.18181846861570
38 0.000000000000000
39 0.000000000000000
40 0.000000000000000
41 -0.000000000000000
42 0.000000000000000
43 0.007102413962137
44 0.055461379548315
45 0.000000000000000
46 0.000000000000000
47 -0.000000000000000
48 -0.000000000000000
49 0.017787950630386
50 0.13890267260650
 Sym=      6.1
 Ene=       0.0000
 Spin= Alpha
 Occup=    0.000094
1 2.31290439056131
2 -1.76320601784450
3 -0.37053754466507
4 -0.034339760911355
5 0.000000000000002
6 -0.000000000000009
7 0.41467787594447
8 -0.000000000000001
9 0.000000000000005
10 -0.67691613424899
11 -0.000000000000000
12 0.000000000000002
13 -0.28826928748095
14 -0.090889203404980
15 -0.090889203404980
16 0.18177840680996
17 0.000000000000000
18 0.000000000000001
19 -0.000000000000004
20 0.13452193728389
21 0.13452193728389
22 -0.26904387456778
23 0.000000000000000
24 -0.000000000000000
25 0.000000000000002
26 2.31290439056131
27 -1.76320601784450
28 -0.37053754466507
29 -0.034339760911355
30 0.000000000000002
31 -0.000000000000009
32 -0.41467787594447
33 -0.000000000000001
34 0.000000000000005
35 0.67691613424899
36 -0.000000000000000
37 0.000000000000002
38 0.28826928748095
39 -0.090889203404980
40 -0.090889203404980
41 0.18177840680996
42 0.000000000000000
43 -0.000000000000001
44 0.000000000000004
45 0.13452193728389
46 0.13452193728389
47 -0.26904387456778
48 0.000000000000000
49 0.000000000000000
50 -0.000000000000002
 Sym=      7.1
 Ene=       0.0000
 Spin= Alpha
 Occup=    0.000088
1 -0.000000000000001
2 0.000000000000001
3 0.000000000000001
4 -0.000000000000000
5 0.52259288618146
6 0.17985937454452
7 0.000000000000001
8 -0.32844561121219
9 -0.11304023412214
10 -0.000000000000001
11 -0.13496798352960
12 -0.046451564388001
13 -0.000000000000002
14 0.000000000000002
15 -0.000000000000003
16 0.000000000000001
17 0.000000000000002
18 0.25824925738195
19 0.088880945641450
20 0.000000000000002
21 -0.000000000000001
22 -0.000000000000001
23 0.000000000000001
24 -0.11483578891602
25 -0.039522721636491
26 -0.000000000000001
27 0.000000000000001
28 0.000000000000001
29 -0.000000000000000
30 0.52259288618146
31 0.17985937454452
32 -0.000000000000001
33 -0.32844561121219
34 -0.11304023412214
35 0.000000000000001
36 -0.13496798352960
37 -0.046451564388001
38 0.000000000000002
39 0.000000000000002
40 -0.000000000000003
41 0.000000000000001
42 0.000000000000002
43 -0.25824925738195
44 -0.088880945641450
45 0.000000000000002
46 -0.000000000000001
47 -0.000000000000001
48 0.000000000000001
49 0.11483578891602
50 0.039522721636491
 Sym=      8.1
 Ene=       0.0000
 Spin= Alpha
 Occup=    0.000088
1 0.000000000000037
2 -0.000000000000039
3 -0.000000000000001
4 -0.000000000000002
5 -0.17985937454452
6 0.52259288618146
7 0.000000000000005
8 0.11304023412214
9 -0.32844561121218
10 -0.000000000000005
11 0.046451564387999
12 -0.13496798352960
13 0.000000000000010
14 -0.000000000000007
15 0.000000000000004
16 0.000000000000004
17 0.000000000000002
18 -0.088880945641450
19 0.25824925738195
20 -0.000000000000004
21 0.000000000000002
22 0.000000000000002
23 0.000000000000001
24 0.039522721636494
25 -0.11483578891602
26 0.000000000000037
27 -0.000000000000039
28 -0.000000000000001
29 -0.000000000000002
30 -0.17985937454452
31 0.52259288618146
32 -0.000000000000005
33 0.11304023412214
34 -0.32844561121218
35 0.000000000000005
36 0.046451564387999
37 -0.13496798352960
38 -0.000000000000010
39 -0.000000000000007
40 0.000000000000004
41 0.000000000000004
42 0.000000000000002
43 0.088880945641450
44 -0.25824925738195
45 -0.000000000000004
46 0.000000000000002
47 0.000000000000002
48 0.000000000000001
49 -0.039522721636494
50 0.11483578891602
 Sym=      9.1
 Ene=       0.0000
 Spin= Alpha
 Occup=    0.000083
1 -0.000000000000000
2 0.000000000000001
3 -0.000000000000000
4 0.000000000000000
5 -0.000000000000005
6 -0.000000000000000
7 -0.000000000000000
8 0.000000000000003
9 0.000000000000001
10 -0.000000000000000
11 0.000000000000001
12 -0.000000000000001
13 -0.000000000000003
14 0.17560905143004
15 -0.17560905143004
16 -0.000000000000000
17 0.40405241820524
18 -0.000000000000002
19 -0.000000000000000
20 0.084011524990089
21 -0.084011524990088
22 -0.000000000000001
23 0.19329903301072
24 0.000000000000001
25 -0.000000000000001
26 -0.000000000000000
27 0.000000000000001
28 -0.000000000000000
29 0.000000000000000
30 -0.000000000000005
31 -0.000000000000000
32 0.000000000000000
33 0.000000000000003
34 0.000000000000001
35 0.000000000000000
36 0.000000000000001
37 -0.000000000000001
38 0.000000000000003
39 0.17560905143004
40 -0.17560905143004
41 -0.000000000000000
42 0.40405241820524
43 0.000000000000002
44 0.000000000000000
45 0.084011524990089
46 -0.084011524990088
47 -0.000000000000001
48 0.19329903301072
49 -0.000000000000001
50 0.000000000000001
 Sym=     10.1
 Ene=       0.0000
 Spin= Alpha
 Occup=    0.000083
1 -0.000000000000000
2 0.000000000000000
3 -0.000000000000000
4 0.000000000000000
5 -0.000000000000005
6 0.000000000000007
7 -0.000000000000000
8 0.000000000000003
9 -0.000000000000004
10 -0.000000000000000
11 0.000000000000001
12 -0.000000000000002
13 -0.000000000000000
14 0.34991965862627
15 -0.34991965862627
16 0.000000000000000
17 -0.20277586623053
18 -0.000000000000002
19 0.000000000000004
20 0.16740187311425
21 -0.16740187311425
22 -0.000000000000000
23 -0.097008153136116
24 0.000000000000002
25 -0.000000000000003
26 -0.000000000000000
27 0.000000000000000
28 -0.000000000000000
29 0.000000000000000
30 -0.000000000000005
31 0.000000000000007
32 0.000000000000000
33 0.000000000000003
34 -0.000000000000004
35 0.000000000000000
36 0.000000000000001
37 -0.000000000000002
38 0.000000000000000
39 0.34991965862627
40 -0.34991965862627
41 0.000000000000000
42 -0.20277586623053
43 0.000000000000002
44 -0.000000000000004
45 0.16740187311425
46 -0.16740187311425
47 -0.000000000000000
48 -0.097008153136116
49 -0.000000000000002
50 0.000000000000003
 Sym=     11.1
 Ene=       0.0000
 Spin= Alpha
 Occup=    0.000015
1 -4.29177699664636
2 3.11053302136324
3 1.12115690913890
4 0.094616906849042
5 -0.000000000000001
6 0.000000000000001
7 0.26481211699271
8 0.000000000000006
9 -0.000000000000004
10 0.000403005554934
11 -0.000000000000006
12 0.000000000000004
13 0.17566801112150
14 -0.20988725463795
15 -0.20988725463795
16 0.41977450927590
17 -0.000000000000000
18 -0.000000000000005
19 0.000000000000003
20 -0.19399486233886
21 -0.19399486233886
22 0.38798972467772
23 0.000000000000000
24 0.000000000000001
25 -0.000000000000001
26 -4.29177699664636
27 3.11053302136324
28 1.12115690913890
29 0.094616906849042
30 -0.000000000000001
31 0.000000000000001
32 -0.26481211699271
33 0.000000000000006
34 -0.000000000000004
35 -0.000403005554934
36 -0.000000000000006
37 0.000000000000004
38 -0.17566801112150
39 -0.20988725463795
40 -0.20988725463795
41 0.41977450927590
42 -0.000000000000000
43 0.000000000000005
44 -0.000000000000003
45 -0.19399486233886
46 -0.19399486233886
47 0.38798972467772
48 0.000000000000000
49 -0.000000000000001
50 0.000000000000001
 Sym=     12.1
 Ene=       0.0000
 Spin= Alpha
 Occup=    0.000014
1 -0.000000000000030
2 0.000000000000023
3 0.000000000000008
4 0.000000000000000
5 -0.47600410702452
6 0.29762249459606
7 0.000000000000001
8 0.10114728420705
9 -0.063242536362741
10 -0.000000000000000
11 0.007715451171361
12 -0.004824100865247
13 -0.000000000000001
14 -0.000000000000006
15 0.000000000000002
16 0.000000000000004
17 -0.000000000000003
18 0.46214452408090
19 -0.28895676337889
20 0.000000000000003
21 -0.000000000000004
22 0.000000000000001
23 0.000000000000003
24 0.17012687946628
25 -0.10637216258724
26 -0.000000000000030
27 0.000000000000023
28 0.000000000000008
29 0.000000000000000
30 -0.47600410702452
31 0.29762249459606
32 -0.000000000000001
33 0.10114728420705
34 -0.063242536362741
35 0.000000000000000
36 0.007715451171361
37 -0.004824100865247
38 0.000000000000001
39 -0.000000000000006
40 0.000000000000002
41 0.000000000000004
42 -0.000000000000003
43 -0.46214452408090
44 0.28895676337889
45 0.000000000000003
46 -0.000000000000004
47 0.000000000000001
48 0.000000000000003
49 -0.17012687946628
50 0.10637216258724
 Sym=     13.1
 Ene=       0.0000
 Spin= Alpha
 Occup=    0.000014
1 -0.000000000000000
2 -0.000000000000004
3 0.000000000000002
4 -0.000000000000001
5 -0.29762249459607
6 -0.47600410702452
7 -0.000000000000000
8 0.063242536362766
9 0.10114728420705
10 0.000000000000002
11 0.004824100865229
12 0.007715451171358
13 0.000000000000007
14 0.000000000000002
15 -0.000000000000002
16 -0.000000000000000
17 0.000000000000002
18 0.28895676337889
19 0.46214452408090
20 -0.000000000000004
21 0.000000000000001
22 0.000000000000003
23 -0.000000000000001
24 0.10637216258723
25 0.17012687946629
26 -0.000000000000000
27 -0.000000000000004
28 0.000000000000002