[Molden Format]
[Molpro variables]
_NUMVAR=  897.0000000000000    
_AVOGAD= 0.6022136736000000E+24
_BOLTZ= 0.1380658000000000E-22
_CLIGHT=  29979245800.00000    
_EV= 0.3674932379085202E-01
_ENULL= 0.8854187817000000E-11
_KJOULE= 0.3808798324128737E-03
_KJOULE/MOL= 0.3808798324128737E-03
_CM= 0.4556335267302901E-05
_CM-1= 0.4556335267302901E-05
_DEB2SI= 0.3335641000000000E-29
_AMU2AU=  1822.888390000000    
_KCAL= 0.1593601117815568E-02
_KCAL/MOL= 0.1593601117815568E-02
_KELVIN= 0.3166811411060229E-05
_JOULE= 0.4359748200000000E-17
_HERTZ= 0.1519829846004524E-15
_HZ= 0.1519829846004524E-15
_JPCAL=  4.184000000000000    
_PLANCK= 0.6626075540000000E-33
_TOA= 0.5291772109200000    
_TOANG= 0.5291772109200000    
_TORAD= 0.1745329251994330E-01
_TOCM=  219474.6306700000    
_TODEBYE=  2.541580000000000    
_TOE= 0.4803242000000000E-09
_TOEV=  27.21138505000000    
_TOHERTZ=  6579683920729000.    
_TOHZ=  6579683920729000.    
_TOK=  315775.0400000000    
_TOKCAL=  627.5096000000000    
_TOKELVIN=  315775.0400000000    
_TOKJ=  2625.500000000000    
_TOKJOULE=  2625.500000000000    
_TOKG= 0.1660565586000000E-26
_ANG=  1.889726124565062    
_ANGSTROM=  1.889726124565062    
_RPAREF=  0.000000000000000    
_RPADISS=  0.000000000000000    
_IGNORE_UNDEF=  2.000000000000000    
_STRICTCHECK=  0.000000000000000    
_SEW_ONEEL=  0.000000000000000    
_CPPDONE=FALSE
_DKROLL_DONE=  0.000000000000000    
_FOCKDONE=TRUE
_GRADONE=FALSE
_HESSDONE=FALSE
_INTDONE=TRUE
_SCFDONE=TRUE
_MODUL_BLOCK=FALSE
_MODUL_CUDA=FALSE
_MODUL_SLATER=FALSE
_MODUL_MRCC=FALSE
_MODUL_NBO6=FALSE
_MODUL_NECI=TRUE
_MODUL_AIMS=TRUE
_MRCC_EXEC=
_FITC_AO_SAVED=FALSE
_FITC_MO_SAVED=FALSE
_SHARED_FS=TRUE
_LSTYP=SEWARD
_INTYP=INTS
_GEOMTYP=ZMAT
_GRADTYP=ALASKA
_DIRECT=FALSE
_DKHO= -1.000000000000000    
_SYNCM=  0.000000000000000    
_BASIS=USERDEF
_ZORIENT=  1.000000000000000    
_NELEC=  2.000000000000000    
!SPIN=  0.000000000000000    
_QSDSTEP=  0.000000000000000    
_QSDIRC=  0.000000000000000    
_PROGRAM=MULTI
_CPUSTEP=  1.370000000000000    
_SYSSTEP= 0.6499999999999999    
_WALLSTEP=  2.350000000000000    
!DFSCF=  0.000000000000000    
!SCSGRD=  0.000000000000000    
_BASINP=  610.0000000000000    
_CPUTOT=  4.390000000000000    
_DFTEXFAC=  1.000000000000000    
_DMX=  0.000000000000000    
_DMY=  0.000000000000000    
_DMZ=  0.000000000000000    
_DMX_SCF=  0.000000000000000    
_DMY_SCF=  0.000000000000000    
_DMZ_SCF=  0.000000000000000    
_DUMMYATOMS=  2.000000000000000    
_EHOMO=-0.5943885602400408    
_ELUMO= 0.2013742837078745E-02
_EIGS=-0.5943885602400408    
_ENERGY= -1.156896516165989    
_ENERGY_METHOD=MULTI
_ENERGY_BASIS=USERDEF
_GEOMETRY_METHOD=
_GEOMETRY_BASIS=
_ENUC= 0.7142857142857143    
_GRADEXFAC=  9999.000000000000    
_GRADMETHOD=TRUE
_NMRMETHOD=  0.000000000000000    
_NMRMAGNET=  0.000000000000000    
!GRID_FREEZE= -1.000000000000000    
_ITERATIONS=  9.000000000000000    
_LASTNELEC=  2.000000000000000    
_LASTSPIN=  0.000000000000000    
_LASTSYM=  1.000000000000000    
_MPP_PROG=  1.000000000000000    
_MSNSTATES=  0.000000000000000    
_RS2PHASE=  0.000000000000000    
_NPROC_MPP=  31.00000000000000    
_NPROC_MPPX=  31.00000000000000    
_NPROC_SMP=  1.000000000000000    
_NUMSTEP=  0.000000000000000    
_ORBITAL=  2141.200000000000    
_PI=  3.141592653589793    
!MCACT=  5.000000000000000    
!MCCLOSED=  0.000000000000000    
!MCFREEZE=  0.000000000000000    
!MCMS2=  0.000000000000000    
!MCNEL=  2.000000000000000    
!MCNSTSYM=  4.000000000000000    
!MCSTATE=  1.000000000000000    
!MCSYM=  1.000000000000000    
!MCWEIGHT= 0.7692307692307693E-01
_SEIG_MIN= 0.4916315243255399E-06
_SEWPROP=TRUE
_STATUS=  1.000000000000000    
_SYSTOT=  1.740000000000000    
_VERSION=  2015001.000000000    
_WALLTOT=  8.310000000000000    
_DATE=03-Oct-19
_LASTORB=MCSCF
_MACHINE= 64 bit mpp version
_OUTPUT=/global/cscratch1/sd/rbello/Quantum_Chem/molpro.xml
_PGROUP=D2h
_TIME=16:14:42
_LIBMOL=/global/common/cori/software/molpro/2015/molprop_2015_1_linux_x86_64_i8/lib/
_VIGRDC=  0.000000000000000    
!VIBCNT=  0.000000000000000    
!RGHFCNT=  0.000000000000000    
!SURFREC=  0.000000000000000    
!ROTREC=  0.000000000000000    
!POLYREC=  0.000000000000000    
!DIPREC=  0.000000000000000    
!DIP4DREC=  0.000000000000000    
!DIPROT=  0.000000000000000    
!DIP4DROT=  0.000000000000000    
!PTREC=  0.000000000000000    
!PT4DREC=  0.000000000000000    
!VSCFREC=  0.000000000000000    
!VCIREC=  0.000000000000000    
!PVCIREC=  0.000000000000000    
!VMP2REC=  0.000000000000000    
!VMCSCFREC=  0.000000000000000    
!VMRCIREC=  0.000000000000000    
!VIBSTATEREC=  0.000000000000000    
!VIBSTATECNT=  0.000000000000000    
!VIBINFO=  0.000000000000000    
!GAREC=  0.000000000000000    
!SCFORB=  21002.00000000000    
!MCORB=  21412.00000000000    
!NEWMOL= -1.000000000000000    
!NEWSYM= -1.000000000000000    
_SLFILES=slscratch
_NGSSTO=  9.000000000000000    
_SIN=SIN
_COS=COS
_TAN=TAN
_ACOS=ACOS
_ASIN=ASIN
_ATAN=ATAN
_COSH=COSH
_SINH=SINH
_TANH=TANH
_ABS=ABS
_MOD=MOD
_ERF=ERF
_REFC=REFC
_ERFC=ERFC
_HYPOT=HYPOT
_J0=J0
_J1=J1
_JN=JN
_GAMMA=GAMMA
_LGAMMA=LGAMMA
_Y0=Y0
_Y1=Y1
_YN=YN
_EXP=EXP
_LOG=LOG
_LOG10=LOG10
_SQRT=SQRT
_INT=INT
_NINT=NINT
_MAX=MAX
_MIN=MIN
_COSMO=  0.000000000000000    
_COSMOIT=  0.000000000000000    
_COSMOES=  0.000000000000000    
_COSMOEDS=  0.000000000000000    
_COSMOEC=  0.000000000000000    
_COSMOEDCORR=  0.000000000000000    
_FEPSI=  1.000000000000000    
_SL_IsMM=  0.000000000000000    
_SL_NSYM=  8.000000000000000    
_SL_System_BitSw=  0.000000000000000    
_SL_Unique_atoms=  0.000000000000000    
_SL_GRAD=  0.000000000000000    
_SL_MAXUPD_Hess=  5.000000000000000    
_SL_N_PRINT_COD=  5.000000000000000    
_SL_PRINT_CODES=  0.000000000000000    
_SL_BasType=  0.000000000000000    
_SL_Energy_Pred=  0.000000000000000    
_SL_New_Coords=  0.000000000000000    
_SL_Total_Nuclea=  0.000000000000000    
_SL_Highest_Mltp=  0.000000000000000    
_SL_Ref_Geom=  0.000000000000000    
_SL_Symmetry_ope=  1.000000000000000    
_SL_agrad=  0.000000000000000    
_SL_GrdMax=  0.000000000000000    
_SL_GrdNorm=  0.000000000000000    
_SL_GrdRMS=  0.000000000000000    
_SL_Hss_Q=  0.000000000000000    
_SL_Hss_X=  0.000000000000000    
_SL_BMxOld=  0.000000000000000    
_SL_KtB=  0.000000000000000    
_SL_TROld=  0.000000000000000    
_SL_No_of_Intern=  0.000000000000000    
_SL_Hess=  0.000000000000000    
_SL_K=  0.000000000000000    
!LATTICE= -1.000000000000000    
!NEWLATTICE=  0.000000000000000    
!LATGRAD_VAR=FALSE
!SEW_LATTICE=  1.000000000000000    
!LOCAL=  0.000000000000000    
!SAVEDOM= -1.000000000000000    
!RESTDOM= -1.000000000000000    
!SAVEDOM_HF= -1.000000000000000    
!RESTDOM_HF= -1.000000000000000    
!HESSREC=  0.000000000000000    
!FREQREC=  0.000000000000000    
!NMODREC=  0.000000000000000    
!GTASKS=  0.000000000000000    
!HTASKS=  0.000000000000000    
!SAVEDOM_EOM= -1.000000000000000    
!RESTDOM_EOM= -1.000000000000000    
!GRADSTATE= -1.000000000000000    
!THRCHG= 0.1000000000000000    
!DEBUG= -1.000000000000000    
!CFIT_CPHF=  0.000000000000000    
!RDOMAUX_CPHF=  3.000000000000000    
!THRAO_CPHF= 0.1000000000000000E-09
!THRMO_CPHF= 0.1000000000000000E-08
!THROV_CPHF= 0.1000000000000000E-11
!THRSW_CPHF= 0.1000000000000000E-09
!THRPROD_CPHF= 0.1000000000000000E-08
!THRAOPR_CPHF= 0.1000000000000000E-11
!CFIT_SCFGRD=  0.000000000000000    
!RDOMAUX_SCFGRD=  5.000000000000000    
!THRAO_SCFGRD= 0.1000000000000000E-09
!THRMO_SCFGRD= 0.1000000000000000E-08
!THROV_SCFGRD= 0.1000000000000000E-11
!THRSW_SCFGRD= 0.1000000000000000E-09
!THRPROD_SCFGRD= 0.1000000000000000E-08
!THRAOPR_SCFGRD= 0.1000000000000000E-11
!LOCFIT_SCF=  0.000000000000000    
!LOCFIT_MP2= -1.000000000000000    
_RIDOM=  0.000000000000000    
!CC2_METHOD=  0.000000000000000    
_BASIS2006=FALSE
_SVDDEL= -1.000000000000000    
_SVDDELA= -1.000000000000000    
_SVDDELP= -1.000000000000000    
_SVDDELF= -1.000000000000000    
_SVDDELS= -1.000000000000000    
_SVDDEL_ABS= -1.000000000000000    
_SVDDELA_ABS= -1.000000000000000    
_SVDDELP_ABS= -1.000000000000000    
_SVDDELF_ABS= -1.000000000000000    
_SVDDELS_ABS= -1.000000000000000    
_MAXBASIS=  0.000000000000000    
!OPT_CONICAL=  0.000000000000000    
!CLEARSP_JGRID=  0.000000000000000    
_GRDHYBR=  0.000000000000000    
_STATEGRAD=  1.000000000000000    
_4EXT_NDISKS=  1.000000000000000    
!ZMP=  0.000000000000000    
_MAXIT_ZMP=  500.0000000000000    
_MAXDIS_ZMP=  100.0000000000000    
_ACCU_ZMP=  14.00000000000000    
_SHIFTA_ZMP= -100.0000000000000    
!EMBEDFLAG=  1.000000000000000    
!EMBED=FALSE
!EMBED_F12=FALSE
!EMBEDNUC=  0.000000000000000    
_EMBEDENERGY=  0.000000000000000    
_KSPACETIME=  0.000000000000000    
_RSPACETIME=  0.000000000000000    
!EMBED_DFC=FALSE
!NUM_VOIDS=  0.000000000000000    
_IBODY=  0.000000000000000    
_EMBE_TOTAL=  0.000000000000000    
_EMBE_HF=  0.000000000000000    
_EMBE_CORR=  0.000000000000000    
!EMBED_PROJ=FALSE
!EMBED_TRUNC=  0.000000000000000    
!EMB_PROJ_ZMU=  1000000.000000000    
!CORRECTION=  0.000000000000000    
!CORRECTION_HF=  0.000000000000000    
!EMBED_ENERGY=  0.000000000000000    
!EMBED_NAXC=FALSE
!EMBED_AORB=  0.000000000000000    
!EMBED_NACORR=  0.000000000000000    
!EMBED_MP2=FALSE
!EMBED_TRUNC_PERTURBATION=FALSE
!EMBED_FROZEN=  0.000000000000000    
_CHANGE_BASIS=FALSE
_RESTORE_BASIS=FALSE
_FIX_EMBED_GUESS=FALSE
!EDFT=  0.000000000000000    
_IFASTLATGRAD=  0.000000000000000    
_SINDEX=  0.000000000000000    
_AVDOM_OSV=  0.000000000000000    
_AVDOM_PNO=  0.000000000000000    
_AVDOM_PAO=  0.000000000000000    
_AVDOM_LMO=  0.000000000000000    
_CC2OSV_FLAG=  0.000000000000000    
_TMADC2_FLAG=FALSE
_PROPADC2_FLAG=FALSE
_LEN_VirQ=  0.000000000000000    
_GRDCC2LR_FLAG=FALSE
_GRDADC2_FLAG=FALSE
_DMX_CC=  0.000000000000000    
_DMY_CC=  0.000000000000000    
_DMZ_CC=  0.000000000000000    
_DMX_NUC=  0.000000000000000    
_DMY_NUC=  0.000000000000000    
_DMZ_NUC=  0.000000000000000    
R=  1.400000000000000    
GX1=  0.000000000000000    
GY1= 0.2857509198010491E-16
GZ1=-0.7000000000000000    
GX2=  0.000000000000000    
GY2= 0.2857509198010491E-16
GZ2=  0.000000000000000    
GX3=  0.000000000000000    
GY3=-0.5715018396020980E-16
GZ3= 0.7000000000000000    
_TRDMX=-0.7573998284062763    
_TRDMY=  0.000000000000000    
_TRDMZ=  0.000000000000000    
[Atoms] Angs
H     1    1         0.0000000000        0.0000000000       -0.3704240476
H     2    0         0.0000000000        0.0000000000        0.0000000000
H     3    1         0.0000000000        0.0000000000        0.3704240476
[GTO]
   1 0
 s    5  1.00
  0.3387000000D+02  0.6067999217D-02
  0.5095000000D+01  0.4530799416D-01
  0.1159000000D+01  0.2028219738D+00
  0.3258000000D+00  0.5039029350D+00
  0.1027000000D+00  0.3834209505D+00
 s    5  1.00
  0.3387000000D+02  0.0000000000D+00
  0.5095000000D+01  0.0000000000D+00
  0.1159000000D+01  0.0000000000D+00
  0.3258000000D+00  0.1000000000D+01
  0.1027000000D+00  0.0000000000D+00
 s    5  1.00
  0.3387000000D+02  0.0000000000D+00
  0.5095000000D+01  0.0000000000D+00
  0.1159000000D+01  0.0000000000D+00
  0.3258000000D+00  0.0000000000D+00
  0.1027000000D+00  0.1000000000D+01
 s    1  1.00
  0.2526000000D-01  0.1000000000D+01
 p    1  1.00
  0.1407000000D+01  0.1000000000D+01
 p    1  1.00
  0.3880000000D+00  0.1000000000D+01
 p    1  1.00
  0.1020000000D+00  0.1000000000D+01
 d    1  1.00
  0.1057000000D+01  0.1000000000D+01
 d    1  1.00
  0.2470000000D+00  0.1000000000D+01
  
   3 0
 s    5  1.00
  0.3387000000D+02  0.6067999217D-02
  0.5095000000D+01  0.4530799416D-01
  0.1159000000D+01  0.2028219738D+00
  0.3258000000D+00  0.5039029350D+00
  0.1027000000D+00  0.3834209505D+00
 s    5  1.00
  0.3387000000D+02  0.0000000000D+00
  0.5095000000D+01  0.0000000000D+00
  0.1159000000D+01  0.0000000000D+00
  0.3258000000D+00  0.1000000000D+01
  0.1027000000D+00  0.0000000000D+00
 s    5  1.00
  0.3387000000D+02  0.0000000000D+00
  0.5095000000D+01  0.0000000000D+00
  0.1159000000D+01  0.0000000000D+00
  0.3258000000D+00  0.0000000000D+00
  0.1027000000D+00  0.1000000000D+01
 s    1  1.00
  0.2526000000D-01  0.1000000000D+01
 p    1  1.00
  0.1407000000D+01  0.1000000000D+01
 p    1  1.00
  0.3880000000D+00  0.1000000000D+01
 p    1  1.00
  0.1020000000D+00  0.1000000000D+01
 d    1  1.00
  0.1057000000D+01  0.1000000000D+01
 d    1  1.00
  0.2470000000D+00  0.1000000000D+01
  
   2 0
 s    1  1.00
  0.2462400000D-01  0.1000000000D+01
 s    1  1.00
  0.1125000000D-01  0.1000000000D+01
 s    1  1.00
  0.5858000000D-02  0.1000000000D+01
 s    1  1.00
  0.3346000000D-02  0.1000000000D+01
 s    1  1.00
  0.2048000000D-02  0.1000000000D+01
 p    1  1.00
  0.4234000000D-01  0.1000000000D+01
 p    1  1.00
  0.1925000000D-01  0.1000000000D+01
 p    1  1.00
  0.9988000000D-02  0.1000000000D+01
 p    1  1.00
  0.5689000000D-02  0.1000000000D+01
 p    1  1.00
  0.3476000000D-02  0.1000000000D+01
 d    1  1.00
  0.6054000000D-01  0.1000000000D+01
 d    1  1.00
  0.2745000000D-01  0.1000000000D+01
 d    1  1.00
  0.1420000000D-01  0.1000000000D+01
 d    1  1.00
  0.8077000000D-02  0.1000000000D+01
 d    1  1.00
  0.4927000000D-02  0.1000000000D+01
 
 
[MO]
 Sym=      1.1
 Ene=      -0.7233
 Spin= Alpha
 Occup=    0.762576
1 0.95828244167230
2 -0.18555329642281
3 -0.32184096954851
4 0.67708939966041
5 0.0
6 0.0
7 0.020561981029705
8 0.0
9 0.0
10 0.047130340757254
11 0.0
12 0.0
13 0.041071742086340
14 -0.002377325146553
15 -0.002377325146553
16 0.004754650293106
17 0.0
18 0.0
19 0.0
20 -0.006542277994453
21 -0.006542277994453
22 0.013084555988906
23 0.0
24 0.0
25 0.0
26 0.95828244167230
27 -0.18555329642281
28 -0.32184096954851
29 0.67708939966041
30 0.0
31 0.0
32 -0.020561981029705
33 0.0
34 0.0
35 -0.047130340757254
36 0.0
37 0.0
38 -0.041071742086340
39 -0.002377325146553
40 -0.002377325146553
41 0.004754650293106
42 0.0
43 0.0
44 0.0
45 -0.006542277994453
46 -0.006542277994453
47 0.013084555988906
48 0.0
49 0.0
50 0.0
51 -1.36207232180195
52 0.046225651585582
53 -0.030505563012975
54 0.016936780177796
55 -0.004774843912448
56 0.0
57 0.0
58 0.0
59 0.0
60 0.0
61 0.0
62 0.0
63 0.0
64 0.0
65 0.0
66 0.0
67 0.0
68 0.0
69 0.0
70 0.0
71 -0.005997923359044
72 -0.005997923359044
73 0.011995846718087
74 0.0
75 0.0
76 0.0
77 0.006191718942936
78 0.006191718942936
79 -0.012383437885872
80 0.0
81 0.0
82 0.0
83 -0.000152031371656
84 -0.000152031371656
85 0.000304062743313
86 0.0
87 0.0
88 0.0
89 0.000138998028747
90 0.000138998028747
91 -0.000277996057495
92 0.0
93 0.0
94 0.0
95 -0.000029851521746
96 -0.000029851521746
97 0.000059703043491
98 0.0
99 0.0
100 0.0
 Sym=      1.5
 Ene=      -0.0733
 Spin= Alpha
 Occup=    0.359558
1 0.70653054081129
2 0.22298663461715
3 0.87739501962887
4 1.14024881503656
5 0.0
6 0.0
7 -0.019716169385477
8 0.0
9 0.0
10 -0.034597388244137
11 0.0
12 0.0
13 0.035534093420853
14 0.003383242978217
15 0.003383242978217
16 -0.006766485956434
17 0.0
18 0.0
19 0.0
20 -0.000455440755838
21 -0.000455440755838
22 0.000910881511676
23 0.0
24 0.0
25 0.0
26 -0.70653054081129
27 -0.22298663461715
28 -0.87739501962887
29 -1.14024881503656
30 0.0
31 0.0
32 -0.019716169385477
33 0.0
34 0.0
35 -0.034597388244137
36 0.0
37 0.0
38 0.035534093420853
39 -0.003383242978217
40 -0.003383242978217
41 0.006766485956434
42 0.0
43 0.0
44 0.0
45 0.000455440755838
46 0.000455440755838
47 -0.000910881511676
48 0.0
49 0.0
50 0.0
51 0.0
52 0.0
53 0.0
54 0.0
55 0.0
56 0.0
57 0.0
58 0.024834829497714
59 0.0
60 0.0
61 0.10074290313040
62 0.0
63 0.0
64 0.30847493039230
65 0.0
66 0.0
67 -0.33533432743710
68 0.0
69 0.0
70 0.12736687896004
71 0.0
72 0.0
73 0.0
74 0.0
75 0.0
76 0.0
77 0.0
78 0.0
79 0.0
80 0.0
81 0.0
82 0.0
83 0.0
84 0.0
85 0.0
86 0.0
87 0.0
88 0.0
89 0.0
90 0.0
91 0.0
92 0.0
93 0.0
94 0.0
95 0.0
96 0.0
97 0.0
98 0.0
99 0.0
100 0.0
 Sym=      2.5
 Ene=       0.0055
 Spin= Alpha
 Occup=    0.076923
1 0.002372192390145
2 -0.037239691541402
3 -0.18362756692973
4 8.99591614539207
5 0.0
6 0.0
7 -0.000645723469295
8 0.0
9 0.0
10 -0.012941364321074
11 0.0
12 0.0
13 -0.070580830962359
14 0.000343303364307
15 0.000343303364307
16 -0.000686606728613
17 0.0
18 0.0
19 0.0
20 0.002057488164494
21 0.002057488164494
22 -0.004114976328987
23 0.0
24 0.0
25 0.0
26 -0.002372192390145
27 0.037239691541402
28 0.18362756692973
29 -8.99591614539207
30 0.0
31 0.0
32 -0.000645723469295
33 0.0
34 0.0
35 -0.012941364321074
36 0.0
37 0.0
38 -0.070580830962359
39 -0.000343303364307
40 -0.000343303364307
41 0.000686606728613
42 0.0
43 0.0
44 0.0
45 -0.002057488164494
46 -0.002057488164494
47 0.004114976328987
48 0.0
49 0.0
50 0.0
51 0.0
52 0.0
53 0.0
54 0.0
55 0.0
56 0.0
57 0.0
58 0.37616714685668
59 0.0
60 0.0
61 2.57314489496699
62 0.0
63 0.0
64 -3.08326240684106
65 0.0
66 0.0
67 4.25222094838172
68 0.0
69 0.0
70 -1.35064567276929
71 0.0
72 0.0
73 0.0
74 0.0
75 0.0
76 0.0
77 0.0
78 0.0
79 0.0
80 0.0
81 0.0
82 0.0
83 0.0
84 0.0
85 0.0
86 0.0
87 0.0
88 0.0
89 0.0
90 0.0
91 0.0
92 0.0
93 0.0
94 0.0
95 0.0
96 0.0
97 0.0
98 0.0
99 0.0
100 0.0
 Sym=      3.5
 Ene=       0.0091
 Spin= Alpha
 Occup=    0.076923
1 -0.001551103611890
2 0.076261086650285
3 0.37972197295768
4 -17.6449181338425
5 0.0
6 0.0
7 0.001221629760165
8 0.0
9 0.0
10 0.026042681873942
11 0.0
12 0.0
13 0.14121819521360
14 -0.000726360500650
15 -0.000726360500650
16 0.001452721001299
17 0.0
18 0.0
19 0.0
20 -0.004250827382108
21 -0.004250827382108
22 0.008501654764217
23 0.0
24 0.0
25 0.0
26 0.001551103611890
27 -0.076261086650285
28 -0.37972197295768
29 17.6449181338425
30 0.0
31 0.0
32 0.001221629760165
33 0.0
34 0.0
35 0.026042681873942
36 0.0
37 0.0
38 0.14121819521360
39 0.000726360500650
40 0.000726360500650
41 -0.001452721001299
42 0.0
43 0.0
44 0.0
45 0.004250827382108
46 0.004250827382108
47 -0.008501654764217
48 0.0
49 0.0
50 0.0
51 0.0
52 0.0
53 0.0
54 0.0
55 0.0
56 0.0
57 0.0
58 -0.74713174551614
59 0.0
60 0.0
61 -5.13822003773966
62 0.0
63 0.0
64 5.32920016524410
65 0.0
66 0.0
67 -7.75416578164816
68 0.0
69 0.0
70 4.82837963483746
71 0.0
72 0.0
73 0.0
74 0.0
75 0.0
76 0.0
77 0.0
78 0.0
79 0.0
80 0.0
81 0.0
82 0.0
83 0.0
84 0.0
85 0.0
86 0.0
87 0.0
88 0.0
89 0.0
90 0.0
91 0.0
92 0.0
93 0.0
94 0.0
95 0.0
96 0.0
97 0.0
98 0.0
99 0.0
100 0.0
 Sym=      4.5
 Ene=       0.0204
 Spin= Alpha
 Occup=    0.076915
1 0.038652336745924
2 0.080712066752677
3 0.70214648360243
4 -13.6434022193240
5 0.0
6 0.0
7 -0.000020871531482
8 0.0
9 0.0
10 0.019375055786811
11 0.0
12 0.0
13 0.14361990399100
14 -0.000813898847739
15 -0.000813898847739
16 0.001627797695478
17 0.0
18 0.0
19 0.0
20 -0.004205107310549
21 -0.004205107310549
22 0.008410214621098
23 0.0
24 0.0
25 0.0
26 -0.038652336745924
27 -0.080712066752677
28 -0.70214648360243
29 13.6434022193240
30 0.0
31 0.0
32 -0.000020871531482
33 0.0
34 0.0
35 0.019375055786811
36 0.0
37 0.0
38 0.14361990399100
39 0.000813898847739
40 0.000813898847739
41 -0.001627797695478
42 0.0
43 0.0
44 0.0
45 0.004205107310549
46 0.004205107310549
47 -0.008410214621098
48 0.0
49 0.0
50 0.0
51 0.0
52 0.0
53 0.0
54 0.0
55 0.0
56 0.0
57 0.0
58 -0.78775405483895
59 0.0
60 0.0
61 -3.66875304055292
62 0.0
63 0.0
64 5.72913347484948
65 0.0
66 0.0
67 -5.91921856954610
68 0.0
69 0.0
70 2.28313418331376
71 0.0
72 0.0
73 0.0
74 0.0
75 0.0
76 0.0
77 0.0
78 0.0
79 0.0
80 0.0
81 0.0
82 0.0
83 0.0
84 0.0
85 0.0
86 0.0
87 0.0
88 0.0
89 0.0
90 0.0
91 0.0
92 0.0
93 0.0
94 0.0
95 0.0
96 0.0
97 0.0
98 0.0
99 0.0
100 0.0
 Sym=      5.5
 Ene=       0.2258
 Spin= Alpha
 Occup=    0.025058
1 -0.81046748465045
2 -0.19780240251309
3 0.16839646258476
4 -7.98788909486851
5 0.0
6 0.0
7 0.027377608133025
8 0.0
9 0.0
10 0.050431284462486
11 0.0
12 0.0
13 -0.13216752420450
14 -0.010575448568190
15 -0.010575448568190
16 0.021150897136380
17 0.0
18 0.0
19 0.0
20 -0.010397546068210
21 -0.010397546068210
22 0.020795092136421
23 0.0
24 0.0
25 0.0
26 0.81046748465045
27 0.19780240251309
28 -0.16839646258476
29 7.98788909486851
30 0.0
31 0.0
32 0.027377608133025
33 0.0
34 0.0
35 0.050431284462486
36 0.0
37 0.0
38 -0.13216752420450
39 0.010575448568190
40 0.010575448568190
41 -0.021150897136380
42 0.0
43 0.0
44 0.0
45 0.010397546068210
46 0.010397546068210
47 -0.020795092136421
48 0.0
49 0.0
50 0.0
51 0.0
52 0.0
53 0.0
54 0.0
55 0.0
56 0.0
57 0.0
58 -1.37985212637756
59 0.0
60 0.0
61 -2.45986560532668
62 0.0
63 0.0
64 3.64547756949410
65 0.0
66 0.0
67 -3.36207572298230
68 0.0
69 0.0
70 1.23228206861390
71 0.0
72 0.0
73 0.0
74 0.0
75 0.0
76 0.0
77 0.0
78 0.0
79 0.0
80 0.0
81 0.0
82 0.0
83 0.0
84 0.0
85 0.0
86 0.0
87 0.0
88 0.0
89 0.0
90 0.0
91 0.0
92 0.0
93 0.0
94 0.0
95 0.0
96 0.0
97 0.0
98 0.0
99 0.0
100 0.0
 Sym=      2.1
 Ene=       0.2011
 Spin= Alpha
 Occup=    0.006022
1 -0.90008619359956
2 0.34337275159973
3 0.96155756501737
4 -8.76604089809642
5 0.0
6 0.0
7 -0.053668656075522
8 0.0
9 0.0
10 -0.23013774333472
11 0.0
12 0.0
13 -0.28553954297887
14 0.011200920251352
15 0.011200920251352
16 -0.022401840502703
17 0.0
18 0.0
19 0.0
20 0.030244675982726
21 0.030244675982726
22 -0.060489351965453
23 0.0
24 0.0
25 0.0
26 -0.90008619359956
27 0.34337275159973
28 0.96155756501737
29 -8.76604089809642
30 0.0
31 0.0
32 0.053668656075522
33 0.0
34 0.0
35 0.23013774333472
36 0.0
37 0.0
38 0.28553954297887
39 0.011200920251352
40 0.011200920251352
41 -0.022401840502703
42 0.0
43 0.0
44 0.0
45 0.030244675982726
46 0.030244675982726
47 -0.060489351965453
48 0.0
49 0.0
50 0.0
51 17.7936275434374
52 -0.66384535358130
53 0.44845778509313
54 -0.25316834132606
55 0.072062098559776
56 0.0
57 0.0
58 0.0
59 0.0
60 0.0
61 0.0
62 0.0
63 0.0
64 0.0
65 0.0
66 0.0
67 0.0
68 0.0
69 0.0
70 0.0
71 0.011480807515296
72 0.011480807515296
73 -0.022961615030592
74 0.0
75 0.0
76 0.0
77 -0.059296654930846
78 -0.059296654930846
79 0.11859330986169
80 0.0
81 0.0
82 0.0
83 -0.018964850898564
84 -0.018964850898564
85 0.037929701797127
86 0.0
87 0.0
88 0.0
89 0.012253350815153
90 0.012253350815153
91 -0.024506701630307
92 0.0
93 0.0
94 0.0
95 -0.004229727414997
96 -0.004229727414997
97 0.008459454829994
98 0.0
99 0.0
100 0.0
 Sym=      3.1
 Ene=       0.4982
 Spin= Alpha
 Occup=    0.000475
1 1.44431397409452
2 -0.77058911034186
3 -0.63464868943682
4 11.1450277178626
5 0.0
6 0.0
7 0.034718251513328
8 0.0
9 0.0
10 -0.094719822686770
11 0.0
12 0.0
13 -1.02984711408230
14 -0.019198967272589
15 -0.019198967272589
16 0.038397934545178
17 0.0
18 0.0
19 0.0
20 -0.090506422758567
21 -0.090506422758567
22 0.18101284551713
23 0.0
24 0.0
25 0.0
26 1.44431397409452
27 -0.77058911034186
28 -0.63464868943682
29 11.1450277178626
30 0.0
31 0.0
32 -0.034718251513328
33 0.0
34 0.0
35 0.094719822686770
36 0.0
37 0.0
38 1.02984711408230
39 -0.019198967272589
40 -0.019198967272589
41 0.038397934545178
42 0.0
43 0.0
44 0.0
45 -0.090506422758567
46 -0.090506422758567
47 0.18101284551713
48 0.0
49 0.0
50 0.0
51 -22.1575584067192
52 0.59966522514950
53 -0.37623888840881
54 0.21111294108279
55 -0.060928881375408
56 0.0
57 0.0
58 0.0
59 0.0
60 0.0
61 0.0
62 0.0
63 0.0
64 0.0
65 0.0
66 0.0
67 0.0
68 0.0
69 0.0
70 0.0
71 0.075272420154899
72 0.075272420154899
73 -0.15054484030980
74 0.0
75 0.0
76 0.0
77 -0.053993696045453
78 -0.053993696045453
79 0.10798739209091
80 0.0
81 0.0
82 0.0
83 0.13359327439275
84 0.13359327439275
85 -0.26718654878550
86 0.0
87 0.0
88 0.0
89 -0.089154874758437
90 -0.089154874758437
91 0.17830974951687
92 0.0
93 0.0
94 0.0
95 0.030670060958585
96 0.030670060958585
97 -0.061340121917170
98 0.0
99 0.0
100 0.0
 Sym=      4.1
 Ene=       1.0632
 Spin= Alpha
 Occup=    0.000115
1 -0.11253079078546
2 0.79124725018631
3 -0.21438394265055
4 -9.58991112166039
5 0.0
6 0.0
7 -0.24699551117430
8 0.0
9 0.0
10 -0.58012140282093
11 0.0
12 0.0
13 -0.23007314138650
14 0.021718070355094
15 0.021718070355094
16 -0.043436140710188
17 0.0
18 0.0
19 0.0
20 0.039558387193117
21 0.039558387193117
22 -0.079116774386234
23 0.0
24 0.0
25 0.0
26 -0.11253079078546
27 0.79124725018631
28 -0.21438394265055
29 -9.58991112166039
30 0.0
31 0.0
32 0.24699551117430
33 0.0
34 0.0
35 0.58012140282093
36 0.0
37 0.0
38 0.23007314138650
39 0.021718070355094
40 0.021718070355094
41 -0.043436140710188
42 0.0
43 0.0
44 0.0
45 0.039558387193117
46 0.039558387193117
47 -0.079116774386234
48 0.0
49 0.0
50 0.0
51 18.8305821551002
52 -0.47824023209678
53 0.25407301892735
54 -0.10076153515861
55 0.021143564347555
56 0.0
57 0.0
58 0.0
59 0.0
60 0.0
61 0.0
62 0.0
63 0.0
64 0.0
65 0.0
66 0.0
67 0.0
68 0.0
69 0.0
70 0.0
71 0.071618957292695
72 0.071618957292695
73 -0.14323791458539
74 0.0
75 0.0
76 0.0
77 -0.051805067744465
78 -0.051805067744465
79 0.10361013548893
80 0.0
81 0.0
82 0.0
83 0.014133795817083
84 0.014133795817083
85 -0.028267591634166
86 0.0
87 0.0
88 0.0
89 -0.015620581455809
90 -0.015620581455809
91 0.031241162911617
92 0.0
93 0.0
94 0.0
95 0.004378674530119
96 0.004378674530119
97 -0.008757349060237
98 0.0
99 0.0
100 0.0
 Sym=      5.1
 Ene=       0.9677
 Spin= Alpha
 Occup=    0.000028
1 0.0
2 0.0
3 0.0
4 0.0
5 0.0
6 0.0
7 0.0
8 0.0
9 0.0
10 0.0
11 0.0
12 0.0
13 0.0
14 -0.21662148834505
15 0.21662148834505
16 0.0
17 0.0
18 0.0
19 0.0
20 -0.32921156039744
21 0.32921156039744
22 0.0
23 0.0
24 0.0
25 0.0
26 0.0
27 0.0
28 0.0
29 0.0
30 0.0
31 0.0
32 0.0
33 0.0
34 0.0
35 0.0
36 0.0
37 0.0
38 0.0
39 -0.21662148834505
40 0.21662148834505
41 0.0
42 0.0
43 0.0
44 0.0
45 -0.32921156039744
46 0.32921156039744
47 0.0
48 0.0
49 0.0
50 0.0
51 0.0
52 0.0
53 0.0
54 0.0
55 0.0
56 0.0
57 0.0
58 0.0
59 0.0
60 0.0
61 0.0
62 0.0
63 0.0
64 0.0
65 0.0
66 0.0
67 0.0
68 0.0
69 0.0
70 0.0
71 -0.019369536477164
72 0.019369536477164
73 0.0
74 0.0
75 0.0
76 0.0
77 -0.10090666793177
78 0.10090666793177
79 0.0
80 0.0
81 0.0
82 0.0
83 0.11379797966108
84 -0.11379797966108
85 0.0
86 0.0
87 0.0
88 0.0
89 -0.077930137229568
90 0.077930137229568
91 0.0
92 0.0
93 0.0
94 0.0
95 0.029307578403640
96 -0.029307578403640
97 0.0
98 0.0
99 0.0
100 0.0
 Sym=      1.2
 Ene=      -0.0219
 Spin= Alpha
 Occup=    0.077804
1 0.0
2 0.0
3 0.0
4 0.0
5 -0.002362757613569
6 0.0
7 0.0
8 -0.019696318146201
9 0.0
10 0.0
11 -0.13714233246043
12 0.0
13 0.0
14 0.0
15 0.0
16 0.0
17 0.0
18 0.000682891136027
19 0.0
20 0.0
21 0.0
22 0.0
23 0.0
24 0.002102760735110
25 0.0
26 0.0
27 0.0
28 0.0
29 0.0
30 -0.002362757613569
31 0.0
32 0.0
33 -0.019696318146201
34 0.0
35 0.0
36 -0.13714233246043
37 0.0
38 0.0
39 0.0
40 0.0
41 0.0
42 0.0
43 -0.000682891136027
44 0.0
45 0.0
46 0.0
47 0.0
48 0.0
49 -0.002102760735110
50 0.0
51 0.0
52 0.0
53 0.0
54 0.0
55 0.0
56 -0.48151506469745
57 0.0
58 0.0
59 -0.42609624997608
60 0.0
61 0.0
62 0.094769549194212
63 0.0
64 0.0
65 0.033779156836181
66 0.0
67 0.0
68 0.037476770439115
69 0.0
70 0.0
71 0.0
72 0.0
73 0.0
74 0.0
75 0.0
76 0.0
77 0.0
78 0.0
79 0.0
80 0.0
81 0.0
82 0.0
83 0.0
84 0.0
85 0.0
86 0.0
87 0.0
88 0.0
89 0.0
90 0.0
91 0.0
92 0.0
93 0.0
94 0.0
95 0.0
96 0.0
97 0.0
98 0.0
99 0.0
100 0.0
 Sym=      1.3
 Ene=      -0.0219
 Spin= Alpha
 Occup=    0.077804
1 0.0
2 0.0
3 0.0
4 0.0
5 0.0
6 -0.002362757644378
7 0.0
8 0.0
9 -0.019696318239163
10 0.0
11 0.0
12 -0.13714233276870
13 0.0
14 0.0
15 0.0
16 0.0
17 0.0
18 0.0
19 0.000682891125628
20 0.0
21 0.0
22 0.0
23 0.0
24 0.0
25 0.002102760745732
26 0.0
27 0.0
28 0.0
29 0.0
30 0.0
31 -0.002362757644378
32 0.0
33 0.0
34 -0.019696318239163
35 0.0
36 0.0
37 -0.13714233276870
38 0.0
39 0.0
40 0.0
41 0.0
42 0.0
43 0.0
44 -0.000682891125628
45 0.0
46 0.0
47 0.0
48 0.0
49 0.0
50 -0.002102760745732
51 0.0
52 0.0
53 0.0
54 0.0
55 0.0
56 0.0
57 -0.48151506589105
58 0.0
59 0.0
60 -0.42609625078545
61 0.0
62 0.0
63 0.094769552185587
64 0.0
65 0.0
66 0.033779158880436
67 0.0
68 0.0
69 0.037476771140917
70 0.0
71 0.0
72 0.0
73 0.0
74 0.0
75 0.0
76 0.0
77 0.0
78 0.0
79 0.0
80 0.0
81 0.0
82 0.0
83 0.0
84 0.0
85 0.0
86 0.0
87 0.0
88 0.0
89 0.0
90 0.0
91 0.0
92 0.0
93 0.0
94 0.0
95 0.0
96 0.0
97 0.0
98 0.0
99 0.0
100 0.0
 Sym=      2.3
 Ene=       0.0074
 Spin= Alpha
 Occup=    0.076932
1 0.0
2 0.0
3 0.0
4 0.0
5 0.0
6 0.000993254534588
7 0.0
8 0.0
9 0.007975959766526
10 0.0
11 0.0
12 0.064576615164338
13 0.0
14 0.0
15 0.0
16 0.0
17 0.0
18 0.0
19 -0.000303473253310
20 0.0
21 0.0
22 0.0
23 0.0
24 0.0
25 0.000431458421103
26 0.0
27 0.0
28 0.0
29 0.0
30 0.0
31 0.000993254534588
32 0.0
33 0.0
34 0.007975959766526
35 0.0
36 0.0
37 0.064576615164338
38 0.0
39 0.0
40 0.0
41 0.0
42 0.0
43 0.0
44 0.000303473253310
45 0.0
46 0.0
47 0.0
48 0.0
49 0.0
50 -0.000431458421103
51 0.0
52 0.0
53 0.0
54 0.0
55 0.0
56 0.0
57 0.26944055820748
58 0.0
59 0.0
60 0.14681718407467
61 0.0
62 0.0
63 -0.58410045125130
64 0.0
65 0.0
66 -0.47731965311265
67 0.0
68 0.0
69 -0.14143046416442
70 0.0
71 0.0
72 0.0
73 0.0
74 0.0
75 0.0
76 0.0
77 0.0
78 0.0
79 0.0
80 0.0
81 0.0
82 0.0
83 0.0
84 0.0
85 0.0
86 0.0
87 0.0
88 0.0
89 0.0
90 0.0
91 0.0
92 0.0
93 0.0
94 0.0
95 0.0
96 0.0
97 0.0
98 0.0
99 0.0
100 0.0
 Sym=      2.2
 Ene=       0.0074
 Spin= Alpha
 Occup=    0.076932
1 0.0
2 0.0
3 0.0
4 0.0
5 0.000993254530329
6 0.0
7 0.0
8 0.007975959844420
9 0.0
10 0.0
11 0.064576615783501
12 0.0
13 0.0
14 0.0
15 0.0
16 0.0
17 0.0
18 -0.000303473263166
19 0.0
20 0.0
21 0.0
22 0.0
23 0.0
24 0.000431458397622
25 0.0
26 0.0
27 0.0
28 0.0
29 0.0
30 0.000993254530329
31 0.0
32 0.0
33 0.007975959844420
34 0.0
35 0.0
36 0.064576615783501
37 0.0
38 0.0
39 0.0
40 0.0
41 0.0
42 0.0
43 0.000303473263166
44 0.0
45 0.0
46 0.0
47 0.0
48 0.0
49 -0.000431458397622
50 0.0
51 0.0
52 0.0
53 0.0
54 0.0
55 0.0
56 0.26944056071927
57 0.0
58 0.0
59 0.14681718572497
60 0.0
61 0.0
62 -0.58410045182047
63 0.0
64 0.0
65 -0.47731965227547
66 0.0
67 0.0
68 -0.14143046513209
69 0.0
70 0.0
71 0.0
72 0.0
73 0.0
74 0.0
75 0.0
76 0.0
77 0.0
78 0.0
79 0.0
80 0.0
81 0.0
82 0.0
83 0.0
84 0.0
85 0.0
86 0.0
87 0.0
88 0.0
89 0.0
90 0.0
91 0.0
92 0.0
93 0.0
94 0.0
95 0.0
96 0.0
97 0.0
98 0.0
99 0.0
100 0.0
 Sym=      1.7
 Ene=       0.0082
 Spin= Alpha
 Occup=    0.076915
1 0.0
2 0.0
3 0.0
4 0.0
5 0.0
6 -0.000130633304924
7 0.0
8 0.0
9 0.002956075671739
10 0.0
11 0.0
12 0.064390833613942
13 0.0
14 0.0
15 0.0
16 0.0
17 0.0
18 0.0
19 -0.000038307314540
20 0.0