
 Primary working directories    : /global/cscratch1/sd/rbello
 Secondary working directories  : /global/cscratch1/sd/rbello
 Wavefunction directory         : /global/homes/r/rbello/wfu/
 Main file repository           : /global/cscratch1/sd/rbello/

 SHA1      : 19cd028119e0e09f93f0674bd8af7968d9b3eff6
 NAME      : 2015.1.36
 ARCHNAME  : linux/x86_64
 FC        : /opt/cray/pe/craype/2.5.14/bin/ftn
 BLASLIB   : -L/opt/intel/compilers_and_libraries_2018.1.163/linux/mkl/lib/intel64 -Wl,-_start-group -lmkl_intel_ilp64 -lmkl_intel_thread -lmkl_core -Wl,-_end-group -liomp5
 id        : lbl

 Nodes     nprocs
 nid00763    23
 Number of processes for MPI-2 version of Molpro:   nprocs(total)=   24   nprocs(compute)=   23   nprocs(helper)=    1

 Using customized tuning parameters: mindgm=7; mindgv=16; mindgc=1; mindgr=1; noblas=0; minvec=7
 default implementation of scratch files=sf  

 ***,H2O
 
 R = 1.810
 AHOH = 104.4776 DEGREES
 
 SYMMETRY,x,y
                                                                                 !!SYMMETRY,NOSYM,NOORIENT
 
 geometry={
 O
 H1,  O,  R;
 H2,  O,  R,  H1,  AHOH;
 }
 
 basis=aug-cc-pVTZ
 {rhf;
 wf,10,1,0;}
 
 put,molden,H2O.molden;
 
                                                                                 !{multi;
                                                                                 !wf,10,1,0;}
 
                                                                                 !{ci;
                                                                                 !wf,10,1,0;natorb,2140.2}
 
                                                                                 !put,molden,H2O_NO.molden;orb,2140.2
 
                                                                                 !put,molden,H2O.molden;
 

 Variables initialized (889), CPU time= 0.01 sec
 Commands  initialized (702), CPU time= 0.00 sec, 572 directives.
 Default parameters read. Elapsed time= 0.34 sec

 Checking input...
 Passed
1


                                         ***  PROGRAM SYSTEM MOLPRO  ***
                                       Copyright, TTI GmbH Stuttgart, 2015
                                    Version 2015.1 linked Dec 29 2018 15:55:43


 **********************************************************************************************************************************
 LABEL *   H2O                                                                           
  64 bit mpp version                                                                     DATE: 01-Apr-20          TIME: 11:58:40  
 **********************************************************************************************************************************

 SHA1:             19cd028119e0e09f93f0674bd8af7968d9b3eff6
 **********************************************************************************************************************************
 SETTING R              =         1.81000000                                  
 SETTING AHOH           =       104.47760000  DEGREES                         

 Variable memory set to    8000000 words,  buffer space   230000 words

 ZSYMEL=X  Y  
 
 SETTING BASIS          =    AUG-CC-PVTZ


 Recomputing integrals since basis changed


 Using spherical harmonics

 Library entry O      S aug-cc-pVTZ          selected for orbital group  1
 Library entry O      P aug-cc-pVTZ          selected for orbital group  1
 Library entry O      D aug-cc-pVTZ          selected for orbital group  1
 Library entry O      F aug-cc-pVTZ          selected for orbital group  1
 Library entry H      S aug-cc-pVTZ          selected for orbital group  2
 Library entry H      P aug-cc-pVTZ          selected for orbital group  2
 Library entry H      D aug-cc-pVTZ          selected for orbital group  2


 PROGRAM * SEWARD (Integral evaluation for generally contracted gaussian basis sets)     Author: Roland Lindh, 1990

 Geometry written to block  1 of record 700

 Orientation using atomic masses  
 Molecule type: Asymmetric top,     Order of principal axis = 2
 User-specified symmetry elements: X,Y
 Symmetry elements: X,Y
 Rotational constants:     285.2398960    820.5404762    437.2326292 GHz  (calculated with average atomic masses)

 Point group  C2v 



 ATOMIC COORDINATES

 NR  ATOM    CHARGE       X              Y              Z

   1  O       8.00    0.000000000    0.000000000   -0.124027343
   2  H1      1.00    0.000000000    1.430931491    0.984365669
   3  H2      1.00    0.000000000   -1.430931491    0.984365669

 Bond lengths in Bohr (Angstrom)

 1-2  1.810000000  1-3  1.810000000
     ( 0.957810752)     ( 0.957810752)

 Bond angles

  2-1-3  104.47760000

 NUCLEAR CHARGE:                   10
 NUMBER OF PRIMITIVE AOS:         121
 NUMBER OF SYMMETRY AOS:          108
 NUMBER OF CONTRACTIONS:           92   (  35A1  +  18B1  +  27B2  +  12A2  )
 NUMBER OF CORE ORBITALS:           1   (   1A1  +   0B1  +   0B2  +   0A2  )
 NUMBER OF VALENCE ORBITALS:        6   (   3A1  +   1B1  +   2B2  +   0A2  )


 NUCLEAR REPULSION ENERGY    9.18920174

 Eigenvalues of metric

         1 0.385E-03 0.186E-02 0.320E-02 0.556E-02 0.760E-02 0.170E-01 0.391E-01 0.621E-01
         2 0.595E-02 0.364E-01 0.643E-01 0.128E+00 0.172E+00 0.227E+00 0.360E+00 0.386E+00
         3 0.393E-03 0.166E-02 0.507E-02 0.619E-02 0.998E-02 0.156E-01 0.390E-01 0.647E-01
         4 0.124E-01 0.678E-01 0.110E+00 0.210E+00 0.283E+00 0.406E+00 0.643E+00 0.778E+00


 Contracted 2-electron integrals neglected if value below      1.0D-11
 AO integral compression algorithm  1   Integral accuracy      1.0D-11

     19.399 MB (compressed) written to integral file ( 66.2%)

     Node minimum: 0.524 MB, node maximum: 1.311 MB


 NUMBER OF SORTED TWO-ELECTRON INTEGRALS:     103243.     BUFFER LENGTH:  32768
 NUMBER OF SEGMENTS:   1  SEGMENT LENGTH:     103243      RECORD LENGTH: 524288

 Memory used in sort:       0.66 MW

 SORT1 READ     3672886. AND WROTE       96963. INTEGRALS IN      1 RECORDS. CPU TIME:     0.22 SEC, REAL TIME:     0.32 SEC
 SORT2 READ     2236577. AND WROTE     2407953. INTEGRALS IN    115 RECORDS. CPU TIME:     0.01 SEC, REAL TIME:     0.02 SEC

 Node minimum:      100717.  Node maximum:      111130. integrals

 OPERATOR DM      FOR CENTER  0  COORDINATES:    0.000000    0.000000    0.000000


 **********************************************************************************************************************************
 DATASETS  * FILE   NREC   LENGTH (MB)   RECORD NAMES
              1      18       19.99       500      610      700      900      950      970     1000      129      960     1100   
                                          VAR    BASINP    GEOM    SYMINP    ZMAT    AOBASIS   BASIS     P2S    ABASIS      S 
                                         1400     1410     1200     1210     1080     1600     1650     1700   
                                           T        V       H0       H01     AOSYM     SMH    MOLCAS    OPER   

 PROGRAMS   *        TOTAL       INT
 CPU TIMES  *         1.34      0.68
 REAL TIME  *         7.34 SEC
 DISK USED  *       110.23 MB      
 GA USED    *         0.00 MB       (max)       0.00 MB       (current)
 **********************************************************************************************************************************


 PROGRAM * RHF-SCF (CLOSED SHELL)       Authors: W. Meyer, H.-J. Werner


 NUMBER OF ELECTRONS:       5+    5-    SPACE SYMMETRY=1    SPIN SYMMETRY: Singlet 
 CONVERGENCE THRESHOLDS:    1.00E-05 (Density)    1.00E-07 (Energy)
 MAX. NUMBER OF ITERATIONS:       60
 INTERPOLATION TYPE:            DIIS
 INTERPOLATION STEPS:              2 (START)      1 (STEP)
 LEVEL SHIFTS:                  0.00 (CLOSED)  0.00 (OPEN) 



 Orbital guess generated from atomic densities. Full valence occupancy:    4   1   2   0

 Molecular orbital dump at record        2100.2

 Initial occupancy:   3   1   1   0

 ITERATION    DDIFF          GRAD             ENERGY        2-EL.EN.            DIPOLE MOMENTS         DIIS   ORB.
    1      0.000D+00      0.000D+00       -76.02279115     77.642746    0.00000    0.00000    1.13318    0    start
    2      0.000D+00      0.182D-01       -76.04955595     74.080391    0.00000    0.00000    0.67093    1    diag
    3      0.206D-01      0.114D-01       -76.06037116     75.641772    0.00000    0.00000    0.78527    2    diag
    4      0.724D-02      0.106D-02       -76.06055185     75.553278    0.00000    0.00000    0.78190    3    diag
    5      0.939D-03      0.283D-03       -76.06056935     75.566806    0.00000    0.00000    0.78068    4    diag
    6      0.286D-03      0.529D-04       -76.06057034     75.566094    0.00000    0.00000    0.78053    5    diag
    7      0.678D-04      0.101D-04       -76.06057038     75.566208    0.00000    0.00000    0.78045    6    diag
    8      0.178D-04      0.194D-05       -76.06057038     75.566197    0.00000    0.00000    0.78042    7    diag
    9      0.322D-05      0.232D-06       -76.06057038     75.566186    0.00000    0.00000    0.78041    0    orth

 Final occupancy:   3   1   1   0

 !RHF STATE 1.1 Energy                -76.060570380681
 Nuclear energy                         9.18920174
 One-electron energy                 -123.03286518
 Two-electron energy                   37.78309306
 Virial quotient                       -1.00136999
 !RHF STATE 1.1 Dipole moment           0.00000000     0.00000000     0.78041330
 Dipole moment /Debye                   0.00000000     0.00000000     1.98348283

 Orbital energies:

         1.1          2.1          3.1          4.1          5.1
    -20.567309    -1.353334    -0.584909     0.029435     0.135954

         1.2          2.2          3.2
     -0.510327     0.158545     0.300561

         1.3          2.3          3.3
     -0.717461     0.047684     0.182983

         1.4          2.4
      0.265282     0.722304

 HOMO      1.2    -0.510327 =     -13.8867eV
 LUMO      4.1     0.029435 =       0.8010eV
 LUMO-HOMO         0.539761 =      14.6877eV


 **********************************************************************************************************************************
 DATASETS  * FILE   NREC   LENGTH (MB)   RECORD NAMES
              1      18       19.99       500      610      700      900      950      970     1000      129      960     1100   
                                          VAR    BASINP    GEOM    SYMINP    ZMAT    AOBASIS   BASIS     P2S    ABASIS      S 
                                         1400     1410     1200     1210     1080     1600     1650     1700   
                                           T        V       H0       H01     AOSYM     SMH    MOLCAS    OPER   

              2       4        2.82       700     1000      520     2100   
                                         GEOM     BASIS   MCVARS     RHF  

 PROGRAMS   *        TOTAL       RHF       INT
 CPU TIMES  *         1.73      0.39      0.68
 REAL TIME  *         7.80 SEC
 DISK USED  *       639.70 MB      
 SF USED    *         0.01 MB      
 GA USED    *         0.00 MB       (max)       0.00 MB       (current)
 **********************************************************************************************************************************

 Dump information in style MOLDEN to h2o.molden                                                                      

 Molecular orbitals read from record     2100.2  Type=RHF/CANONICAL (state 1.1)
 Occupation numbers read from record     2100.2  Type=RHF/RHF (state 1.1)
 Orbital energies read from record       2100.2  Type=RHF/CANONICAL (state 1.1)
 Redundancy group numbers read from rec  2100.2  Type=RHF/RHF (state 1.1)
 
 DUMP ORBITAL  1.1 AS ORBITAL    1  occ=    2.0000  eig=  -20.5673  GROUP=   2
 DUMP ORBITAL  2.1 AS ORBITAL    2  occ=    2.0000  eig=   -1.3533  GROUP=   2
 DUMP ORBITAL  1.3 AS ORBITAL    3  occ=    2.0000  eig=   -0.7175  GROUP=   2
 DUMP ORBITAL  3.1 AS ORBITAL    4  occ=    2.0000  eig=   -0.5849  GROUP=   2
 DUMP ORBITAL  1.2 AS ORBITAL    5  occ=    2.0000  eig=   -0.5103  GROUP=   2

 Total charge:      10.000000

 **********************************************************************************************************************************

 RHF/aug-cc-pVTZ energy=    -76.060570380681

        RHF-SCF 
    -76.06057038
 **********************************************************************************************************************************
 Molpro calculation terminated
 Variable memory released
