[Molden Format]
[Molpro variables]
_NUMVAR=  895.0000000000000    
_AVOGAD= 0.6022136736000000E+24
_BOLTZ= 0.1380658000000000E-22
_CLIGHT=  29979245800.00000    
_EV= 0.3674932379085202E-01
_ENULL= 0.8854187817000000E-11
_KJOULE= 0.3808798324128737E-03
_KJOULE/MOL= 0.3808798324128737E-03
_CM= 0.4556335267302901E-05
_CM-1= 0.4556335267302901E-05
_DEB2SI= 0.3335641000000000E-29
_AMU2AU=  1822.888390000000    
_KCAL= 0.1593601117815568E-02
_KCAL/MOL= 0.1593601117815568E-02
_KELVIN= 0.3166811411060229E-05
_JOULE= 0.4359748200000000E-17
_HERTZ= 0.1519829846004524E-15
_HZ= 0.1519829846004524E-15
_JPCAL=  4.184000000000000    
_PLANCK= 0.6626075540000000E-33
_TOA= 0.5291772109200000    
_TOANG= 0.5291772109200000    
_TORAD= 0.1745329251994330E-01
_TOCM=  219474.6306700000    
_TODEBYE=  2.541580000000000    
_TOE= 0.4803242000000000E-09
_TOEV=  27.21138505000000    
_TOHERTZ=  6579683920729000.    
_TOHZ=  6579683920729000.    
_TOK=  315775.0400000000    
_TOKCAL=  627.5096000000000    
_TOKELVIN=  315775.0400000000    
_TOKJ=  2625.500000000000    
_TOKJOULE=  2625.500000000000    
_TOKG= 0.1660565586000000E-26
_ANG=  1.889726124565062    
_ANGSTROM=  1.889726124565062    
_RPAREF=  0.000000000000000    
_RPADISS=  0.000000000000000    
_IGNORE_UNDEF=  2.000000000000000    
_STRICTCHECK=  0.000000000000000    
_SEW_ONEEL=  0.000000000000000    
_CPPDONE=FALSE
_DKROLL_DONE=  0.000000000000000    
_FOCKDONE=TRUE
_GRADONE=FALSE
_HESSDONE=FALSE
_INTDONE=TRUE
_SCFDONE=TRUE
_MODUL_BLOCK=FALSE
_MODUL_CUDA=FALSE
_MODUL_SLATER=FALSE
_MODUL_MRCC=FALSE
_MODUL_NBO6=FALSE
_MODUL_NECI=TRUE
_MODUL_AIMS=TRUE
_MRCC_EXEC=
_FITC_AO_SAVED=FALSE
_FITC_MO_SAVED=FALSE
_SHARED_FS=TRUE
_LSTYP=SEWARD
_INTYP=INTS
_GEOMTYP=ZMAT
_GRADTYP=ALASKA
_DIRECT=FALSE
_DKHO= -1.000000000000000    
_SYNCM=  0.000000000000000    
_BASIS=AUG-CC-PVTZ
_ZORIENT=  0.000000000000000    
_NELEC=  10.00000000000000    
!SPIN=  0.000000000000000    
_QSDSTEP=  0.000000000000000    
_QSDIRC=  0.000000000000000    
_PROGRAM=MULTI
_CPUSTEP=  1.560000000000000    
_SYSSTEP= 0.2400000000000001    
_WALLSTEP=  2.330000000000000    
!DFSCF=  0.000000000000000    
!SCSGRD=  0.000000000000000    
_BASINP=  610.0000000000000    
_CPUTOT=  3.149999999999999    
_DFTEXFAC=  1.000000000000000    
_DMX=-0.4220278741031069E-16
_DMY= 0.5695752570405739    
_DMZ= 0.4411904026044936    
_DMX_SCF=-0.4953058183506623E-15
_DMY_SCF= 0.6169798705012806    
_DMZ_SCF= 0.4779097962322214    
_EHOMO=-0.5103252198642764    
_ELUMO= 0.2943443732186518E-01
_EIGS= -20.56731270453943    
_ENERGY= -76.11391215659826    
_ENERGY_METHOD=MULTI
_ENERGY_BASIS=aug-cc-pVTZ
_GEOMETRY_METHOD=
_GEOMETRY_BASIS=
_ENUC=  9.189201743985826    
_GRADEXFAC=  9999.000000000000    
_GRADMETHOD=TRUE
_NMRMETHOD=  0.000000000000000    
_NMRMAGNET=  0.000000000000000    
!GRID_FREEZE= -1.000000000000000    
_ITERATIONS=  3.000000000000000    
_LASTNELEC=  8.000000000000000    
_LASTSPIN=  0.000000000000000    
_LASTSYM=  1.000000000000000    
_MPP_PROG=  1.000000000000000    
_MSNSTATES=  0.000000000000000    
_RS2PHASE=  0.000000000000000    
_NPROC_MPP=  23.00000000000000    
_NPROC_MPPX=  23.00000000000000    
_NPROC_SMP=  1.000000000000000    
_NUMSTEP=  0.000000000000000    
_ORBITAL=  2140.200000000000    
_PI=  3.141592653589793    
!MCACT=  6.000000000000000    
!MCCLOSED=  1.000000000000000    
!MCFREEZE=  0.000000000000000    
!MCMS2=  0.000000000000000    
!MCNEL=  8.000000000000000    
!MCNSTSYM=  1.000000000000000    
!MCSTATE=  1.000000000000000    
!MCSYM=  1.000000000000000    
!MCWEIGHT=  1.000000000000000    
_SEIG_MIN= 0.3845584429693676E-03
_SEWPROP=TRUE
_STATUS=  1.000000000000000    
_SYSTOT= 0.5300000000000000    
_VERSION=  2015001.000000000    
_WALLTOT=  6.120000000000000    
_DATE=13-Feb-20
_LASTORB=MCSCF
_MACHINE= 64 bit mpp version
_OUTPUT=/global/cscratch1/sd/rbello/Quantum_Chem/molpro.xml
_PGROUP=C1
_TIME=13:48:49
_LIBMOL=/global/common/cori/software/molpro/2015/molprop_2015_1_linux_x86_64_i8/lib/
_VIGRDC=  0.000000000000000    
!VIBCNT=  0.000000000000000    
!RGHFCNT=  0.000000000000000    
!SURFREC=  0.000000000000000    
!ROTREC=  0.000000000000000    
!POLYREC=  0.000000000000000    
!DIPREC=  0.000000000000000    
!DIP4DREC=  0.000000000000000    
!DIPROT=  0.000000000000000    
!DIP4DROT=  0.000000000000000    
!PTREC=  0.000000000000000    
!PT4DREC=  0.000000000000000    
!VSCFREC=  0.000000000000000    
!VCIREC=  0.000000000000000    
!PVCIREC=  0.000000000000000    
!VMP2REC=  0.000000000000000    
!VMCSCFREC=  0.000000000000000    
!VMRCIREC=  0.000000000000000    
!VIBSTATEREC=  0.000000000000000    
!VIBSTATECNT=  0.000000000000000    
!VIBINFO=  0.000000000000000    
!GAREC=  0.000000000000000    
!SCFORB=  21002.00000000000    
!MCORB=  21402.00000000000    
!NEWMOL= -1.000000000000000    
!NEWSYM= -1.000000000000000    
_SLFILES=slscratch
_NGSSTO=  9.000000000000000    
_SIN=SIN
_COS=COS
_TAN=TAN
_ACOS=ACOS
_ASIN=ASIN
_ATAN=ATAN
_COSH=COSH
_SINH=SINH
_TANH=TANH
_ABS=ABS
_MOD=MOD
_ERF=ERF
_REFC=REFC
_ERFC=ERFC
_HYPOT=HYPOT
_J0=J0
_J1=J1
_JN=JN
_GAMMA=GAMMA
_LGAMMA=LGAMMA
_Y0=Y0
_Y1=Y1
_YN=YN
_EXP=EXP
_LOG=LOG
_LOG10=LOG10
_SQRT=SQRT
_INT=INT
_NINT=NINT
_MAX=MAX
_MIN=MIN
_COSMO=  0.000000000000000    
_COSMOIT=  0.000000000000000    
_COSMOES=  0.000000000000000    
_COSMOEDS=  0.000000000000000    
_COSMOEC=  0.000000000000000    
_COSMOEDCORR=  0.000000000000000    
_FEPSI=  1.000000000000000    
_SL_IsMM=  0.000000000000000    
_SL_NSYM=  1.000000000000000    
_SL_System_BitSw=  0.000000000000000    
_SL_Unique_atoms=  0.000000000000000    
_SL_GRAD=  0.000000000000000    
_SL_MAXUPD_Hess=  5.000000000000000    
_SL_N_PRINT_COD=  5.000000000000000    
_SL_PRINT_CODES=  0.000000000000000    
_SL_BasType=  0.000000000000000    
_SL_Energy_Pred=  0.000000000000000    
_SL_New_Coords=  0.000000000000000    
_SL_Total_Nuclea=  0.000000000000000    
_SL_Highest_Mltp=  0.000000000000000    
_SL_Ref_Geom=  0.000000000000000    
_SL_Symmetry_ope=  1.000000000000000    
_SL_agrad=  0.000000000000000    
_SL_GrdMax=  0.000000000000000    
_SL_GrdNorm=  0.000000000000000    
_SL_GrdRMS=  0.000000000000000    
_SL_Hss_Q=  0.000000000000000    
_SL_Hss_X=  0.000000000000000    
_SL_BMxOld=  0.000000000000000    
_SL_KtB=  0.000000000000000    
_SL_TROld=  0.000000000000000    
_SL_No_of_Intern=  0.000000000000000    
_SL_Hess=  0.000000000000000    
_SL_K=  0.000000000000000    
!LATTICE= -1.000000000000000    
!NEWLATTICE=  0.000000000000000    
!LATGRAD_VAR=FALSE
!SEW_LATTICE=  1.000000000000000    
!LOCAL=  0.000000000000000    
!SAVEDOM= -1.000000000000000    
!RESTDOM= -1.000000000000000    
!SAVEDOM_HF= -1.000000000000000    
!RESTDOM_HF= -1.000000000000000    
!HESSREC=  0.000000000000000    
!FREQREC=  0.000000000000000    
!NMODREC=  0.000000000000000    
!GTASKS=  0.000000000000000    
!HTASKS=  0.000000000000000    
!SAVEDOM_EOM= -1.000000000000000    
!RESTDOM_EOM= -1.000000000000000    
!GRADSTATE= -1.000000000000000    
!THRCHG= 0.1000000000000000    
!DEBUG= -1.000000000000000    
!CFIT_CPHF=  0.000000000000000    
!RDOMAUX_CPHF=  3.000000000000000    
!THRAO_CPHF= 0.1000000000000000E-09
!THRMO_CPHF= 0.1000000000000000E-08
!THROV_CPHF= 0.1000000000000000E-11
!THRSW_CPHF= 0.1000000000000000E-09
!THRPROD_CPHF= 0.1000000000000000E-08
!THRAOPR_CPHF= 0.1000000000000000E-11
!CFIT_SCFGRD=  0.000000000000000    
!RDOMAUX_SCFGRD=  5.000000000000000    
!THRAO_SCFGRD= 0.1000000000000000E-09
!THRMO_SCFGRD= 0.1000000000000000E-08
!THROV_SCFGRD= 0.1000000000000000E-11
!THRSW_SCFGRD= 0.1000000000000000E-09
!THRPROD_SCFGRD= 0.1000000000000000E-08
!THRAOPR_SCFGRD= 0.1000000000000000E-11
!LOCFIT_SCF=  0.000000000000000    
!LOCFIT_MP2= -1.000000000000000    
_RIDOM=  0.000000000000000    
!CC2_METHOD=  0.000000000000000    
_BASIS2006=FALSE
_SVDDEL= -1.000000000000000    
_SVDDELA= -1.000000000000000    
_SVDDELP= -1.000000000000000    
_SVDDELF= -1.000000000000000    
_SVDDELS= -1.000000000000000    
_SVDDEL_ABS= -1.000000000000000    
_SVDDELA_ABS= -1.000000000000000    
_SVDDELP_ABS= -1.000000000000000    
_SVDDELF_ABS= -1.000000000000000    
_SVDDELS_ABS= -1.000000000000000    
_MAXBASIS=  0.000000000000000    
!OPT_CONICAL=  0.000000000000000    
!CLEARSP_JGRID=  0.000000000000000    
_GRDHYBR=  0.000000000000000    
_STATEGRAD=  1.000000000000000    
_4EXT_NDISKS=  1.000000000000000    
!ZMP=  0.000000000000000    
_MAXIT_ZMP=  500.0000000000000    
_MAXDIS_ZMP=  100.0000000000000    
_ACCU_ZMP=  14.00000000000000    
_SHIFTA_ZMP= -100.0000000000000    
!EMBEDFLAG=  1.000000000000000    
!EMBED=FALSE
!EMBED_F12=FALSE
!EMBEDNUC=  0.000000000000000    
_EMBEDENERGY=  0.000000000000000    
_KSPACETIME=  0.000000000000000    
_RSPACETIME=  0.000000000000000    
!EMBED_DFC=FALSE
!NUM_VOIDS=  0.000000000000000    
_IBODY=  0.000000000000000    
_EMBE_TOTAL=  0.000000000000000    
_EMBE_HF=  0.000000000000000    
_EMBE_CORR=  0.000000000000000    
!EMBED_PROJ=FALSE
!EMBED_TRUNC=  0.000000000000000    
!EMB_PROJ_ZMU=  1000000.000000000    
!CORRECTION=  0.000000000000000    
!CORRECTION_HF=  0.000000000000000    
!EMBED_ENERGY=  0.000000000000000    
!EMBED_NAXC=FALSE
!EMBED_AORB=  0.000000000000000    
!EMBED_NACORR=  0.000000000000000    
!EMBED_MP2=FALSE
!EMBED_TRUNC_PERTURBATION=FALSE
!EMBED_FROZEN=  0.000000000000000    
_CHANGE_BASIS=FALSE
_RESTORE_BASIS=FALSE
_FIX_EMBED_GUESS=FALSE
!EDFT=  0.000000000000000    
_IFASTLATGRAD=  0.000000000000000    
_SINDEX=  0.000000000000000    
_AVDOM_OSV=  0.000000000000000    
_AVDOM_PNO=  0.000000000000000    
_AVDOM_PAO=  0.000000000000000    
_AVDOM_LMO=  0.000000000000000    
_CC2OSV_FLAG=  0.000000000000000    
_TMADC2_FLAG=FALSE
_PROPADC2_FLAG=FALSE
_LEN_VirQ=  0.000000000000000    
_GRDCC2LR_FLAG=FALSE
_GRDADC2_FLAG=FALSE
_DMX_CC=-0.5294507951655994E-22
_DMY_CC=-0.1148744173469513E-02
_DMZ_CC=-0.8898119907532785E-03
_DMX_NUC=  0.000000000000000    
_DMY_NUC=  1.752524270635000    
_DMZ_NUC=  1.357497314003000    
R=  1.810000000000000    
AHOH=  104.4776000000000    
GX1=  0.000000000000000    
GY1=  0.000000000000000    
GZ1=  0.000000000000000    
GX2=  0.000000000000000    
GY2=  0.000000000000000    
GZ2=  1.810000000000000    
GX3=  0.000000000000000    
GY3=  1.752524270635093    
GZ3=-0.4525026859974830    
[Atoms] Angs
O     1    8         0.0000000000        0.0000000000        0.0000000000
H     2    1         0.0000000000        0.0000000000        0.9578107518
H     3    1         0.0000000000        0.9273959056       -0.2394541093
[GTO]
   1 0
 s   10  1.00
  0.1533000000D+05  0.5079996682D-03
  0.2299000000D+04  0.3928997434D-02
  0.5224000000D+03  0.2024298678D-01
  0.1473000000D+03  0.7918094828D-01
  0.4755000000D+02  0.2306868493D+00
  0.1676000000D+02  0.4331177171D+00
  0.6207000000D+01  0.3502597712D+00
  0.1752000000D+01  0.4272797209D-01
  0.6882000000D+00 -0.8153994674D-02
  0.2384000000D+00  0.2380998445D-02
 s   10  1.00
  0.1533000000D+05 -0.1150000604D-03
  0.2299000000D+04 -0.8950004697D-03
  0.5224000000D+03 -0.4636002433D-02
  0.1473000000D+03 -0.1872400983D-01
  0.4755000000D+02 -0.5846303068D-01
  0.1676000000D+02 -0.1364630716D+00
  0.6207000000D+01 -0.1757400922D+00
  0.1752000000D+01  0.1609340845D+00
  0.6882000000D+00  0.6034183167D+00
  0.2384000000D+00  0.3787651988D+00
 s   10  1.00
  0.1533000000D+05  0.0000000000D+00
  0.2299000000D+04  0.0000000000D+00
  0.5224000000D+03  0.0000000000D+00
  0.1473000000D+03  0.0000000000D+00
  0.4755000000D+02  0.0000000000D+00
  0.1676000000D+02  0.0000000000D+00
  0.6207000000D+01  0.0000000000D+00
  0.1752000000D+01  0.1000000000D+01
  0.6882000000D+00  0.0000000000D+00
  0.2384000000D+00  0.0000000000D+00
 s   10  1.00
  0.1533000000D+05  0.0000000000D+00
  0.2299000000D+04  0.0000000000D+00
  0.5224000000D+03  0.0000000000D+00
  0.1473000000D+03  0.0000000000D+00
  0.4755000000D+02  0.0000000000D+00
  0.1676000000D+02  0.0000000000D+00
  0.6207000000D+01  0.0000000000D+00
  0.1752000000D+01  0.0000000000D+00
  0.6882000000D+00  0.0000000000D+00
  0.2384000000D+00  0.1000000000D+01
 s    1  1.00
  0.7376000000D-01  0.1000000000D+01
 p    5  1.00
  0.3446000000D+02  0.1592799074D-01
  0.7749000000D+01  0.9973994203D-01
  0.2280000000D+01  0.3104918195D+00
  0.7156000000D+00  0.4910257146D+00
  0.2140000000D+00  0.3363368045D+00
 p    5  1.00
  0.3446000000D+02  0.0000000000D+00
  0.7749000000D+01  0.0000000000D+00
  0.2280000000D+01  0.0000000000D+00
  0.7156000000D+00  0.1000000000D+01
  0.2140000000D+00  0.0000000000D+00
 p    5  1.00
  0.3446000000D+02  0.0000000000D+00
  0.7749000000D+01  0.0000000000D+00
  0.2280000000D+01  0.0000000000D+00
  0.7156000000D+00  0.0000000000D+00
  0.2140000000D+00  0.1000000000D+01
 p    1  1.00
  0.5974000000D-01  0.1000000000D+01
 d    1  1.00
  0.2314000000D+01  0.1000000000D+01
 d    1  1.00
  0.6450000000D+00  0.1000000000D+01
 d    1  1.00
  0.2140000000D+00  0.1000000000D+01
 f    1  1.00
  0.1428000000D+01  0.1000000000D+01
 f    1  1.00
  0.5000000000D+00  0.1000000000D+01
  
   2 0
 s    5  1.00
  0.3387000000D+02  0.6067999217D-02
  0.5095000000D+01  0.4530799416D-01
  0.1159000000D+01  0.2028219738D+00
  0.3258000000D+00  0.5039029350D+00
  0.1027000000D+00  0.3834209505D+00
 s    5  1.00
  0.3387000000D+02  0.0000000000D+00
  0.5095000000D+01  0.0000000000D+00
  0.1159000000D+01  0.0000000000D+00
  0.3258000000D+00  0.1000000000D+01
  0.1027000000D+00  0.0000000000D+00
 s    5  1.00
  0.3387000000D+02  0.0000000000D+00
  0.5095000000D+01  0.0000000000D+00
  0.1159000000D+01  0.0000000000D+00
  0.3258000000D+00  0.0000000000D+00
  0.1027000000D+00  0.1000000000D+01
 s    1  1.00
  0.2526000000D-01  0.1000000000D+01
 p    1  1.00
  0.1407000000D+01  0.1000000000D+01
 p    1  1.00
  0.3880000000D+00  0.1000000000D+01
 p    1  1.00
  0.1020000000D+00  0.1000000000D+01
 d    1  1.00
  0.1057000000D+01  0.1000000000D+01
 d    1  1.00
  0.2470000000D+00  0.1000000000D+01
  
   3 0
 s    5  1.00
  0.3387000000D+02  0.6067999217D-02
  0.5095000000D+01  0.4530799416D-01
  0.1159000000D+01  0.2028219738D+00
  0.3258000000D+00  0.5039029350D+00
  0.1027000000D+00  0.3834209505D+00
 s    5  1.00
  0.3387000000D+02  0.0000000000D+00
  0.5095000000D+01  0.0000000000D+00
  0.1159000000D+01  0.0000000000D+00
  0.3258000000D+00  0.1000000000D+01
  0.1027000000D+00  0.0000000000D+00
 s    5  1.00
  0.3387000000D+02  0.0000000000D+00
  0.5095000000D+01  0.0000000000D+00
  0.1159000000D+01  0.0000000000D+00
  0.3258000000D+00  0.0000000000D+00
  0.1027000000D+00  0.1000000000D+01
 s    1  1.00
  0.2526000000D-01  0.1000000000D+01
 p    1  1.00
  0.1407000000D+01  0.1000000000D+01
 p    1  1.00
  0.3880000000D+00  0.1000000000D+01
 p    1  1.00
  0.1020000000D+00  0.1000000000D+01
 d    1  1.00
  0.1057000000D+01  0.1000000000D+01
 d    1  1.00
  0.2470000000D+00  0.1000000000D+01
 
 
[MO]
 Sym=      1.1
 Ene=     -20.4239
 Spin= Alpha
 Occup=    2.000000
1 0.99554875842865
2 -0.077817839533124
3 0.001926186983953
4 -0.007655047712520
5 -0.005920615976400
6 0.0
7 0.026471431378987
8 0.020504663972883
9 0.0
10 -0.003867155832092
11 -0.002995482571538
12 0.0
13 -0.001983137694885
14 -0.001536135191637
15 0.0
16 0.000430330739730
17 0.000333330975702
18 -0.000097413486474
19 0.000091346475004
20 0.000006067011470
21 0.0
22 0.0
23 0.000190689943915
24 0.000694140497212
25 -0.000156769437425
26 -0.000537371059786
27 0.0
28 0.0
29 0.000851045716198
30 -0.000069860121851
31 0.000083158912312
32 -0.000013298790461
33 0.0
34 0.0
35 0.000215680635063
36 0.0
37 -0.000021107820416
38 -0.000054581056320
39 0.0
40 -0.000006386133318
41 -0.000004946700526
42 0.0
43 0.000034705246102
44 0.000078174871855
45 0.0
46 0.0
47 -0.000112183187789
48 -0.000194423760156
49 0.0
50 0.000076519038550
51 0.000059271404537
52 0.0
53 0.000073990501748
54 0.000201575441953
55 0.0
56 -0.007296293072517
57 0.007681395735732
58 0.006658446927515
59 0.000204966426607
60 0.0
61 0.000294485029861
62 0.000434157283843
63 0.0
64 0.000762267209954
65 -0.001371749210096
66 0.0
67 0.000433704244419
68 -0.000490951980790
69 0.000070198531830
70 0.000105229942574
71 -0.000175428474404
72 0.0
73 0.0
74 -0.000160550826801
75 -0.000306447867312
76 -0.000190448206980
77 0.000496896074292
78 0.0
79 0.0
80 -0.000116489442294
81 -0.007296309430802
82 0.007681392556845
83 0.006658447560156
84 0.000204965013182
85 0.0
86 0.000493993017236
87 0.000176593802512
88 0.0
89 -0.001137618904057
90 0.001081001007121
91 0.0
92 -0.000366934116719
93 0.000542671227489
94 0.000070198775202
95 -0.000225200873830
96 0.000155002098628
97 0.0
98 0.0
99 -0.000062034770378
100 -0.000306447913264
101 0.000405096288370
102 -0.000098648375107
103 0.0
104 0.0
105 -0.000294047865173
 Sym=      2.1
 Ene=      -0.5122
 Spin= Alpha
 Occup=    1.999540
1 0.0
2 0.0
3 0.0
4 0.0
5 0.0
6 0.91396092654488
7 0.0
8 0.0
9 0.002190525083137
10 0.0
11 0.0
12 0.018631557271340
13 0.0
14 0.0
15 0.033137756852822
16 0.0
17 0.0
18 0.0
19 0.0
20 0.0
21 0.004609188910006
22 0.003570257076451
23 0.0
24 0.0
25 0.0
26 0.0
27 0.011077942006099
28 0.008580924103392
29 0.0
30 0.0
31 0.0
32 0.0
33 0.003783347241339
34 0.002930563605914
35 0.0
36 -0.003681635700161
37 0.0
38 0.0
39 0.002230610316384
40 0.0
41 0.0
42 0.002708822299986
43 0.0
44 0.0
45 -0.001069307799192
46 -0.001449490903696
47 0.0
48 0.0
49 0.000941326448472
50 0.0
51 0.0
52 0.001003369667586
53 0.0
54 0.0
55 -0.000138732529937
56 0.0
57 0.0
58 0.0
59 0.0
60 0.010613143280749
61 0.0
62 0.0
63 0.029743483647422
64 0.0
65 0.0
66 0.017965887553791
67 0.0
68 0.0
69 0.0
70 0.0
71 0.0
72 0.000021132095727
73 -0.004743027195224
74 0.0
75 0.0
76 0.0
77 0.0
78 0.000298874443657
79 -0.007445140541584
80 0.0
81 0.0
82 0.0
83 0.0
84 0.0
85 0.010613143185820
86 0.0
87 0.0
88 0.029743482591049
89 0.0
90 0.0
91 0.017965886492213
92 0.0
93 0.0
94 0.0
95 0.0
96 0.0
97 -0.004587131366509
98 0.001206224843851
99 0.0
100 0.0
101 0.0
102 0.0
103 -0.007134004098022
104 0.002150679967313
105 0.0
 Sym=      3.1
 Ene=      -1.2499
 Spin= Alpha
 Occup=    1.999149
1 0.079422594681611
2 0.89243159194233
3 -0.004494173441111
4 0.090834140372838
5 0.075693192316023
6 0.0
7 -0.27926984707822
8 -0.21632134857798
9 0.0
10 0.009686869149549
11 0.007503410816181
12 0.0
13 0.012864070025001
14 0.009964468511374
15 0.0
16 -0.003547946103620
17 -0.002748227132275
18 0.000302342797245
19 -0.000758311961807
20 0.000455969164562
21 0.0
22 0.0
23 -0.002715211125631
24 -0.002182974317694
25 -0.000690611611374
26 0.002873585929069
27 0.0
28 0.0
29 -0.007969756873592
30 -0.001300720315052
31 0.000067657088698
32 0.001233063226354
33 0.0
34 0.0
35 -0.002605912394881
36 0.0
37 0.000265521675131
38 0.000780270597181
39 0.0
40 0.000188503297526
41 0.000146014483221
42 0.0
43 -0.000544738006581
44 -0.001192857340906
45 0.0
46 0.0
47 0.000299392377037
48 0.000547611972404
49 0.0
50 -0.000171028449805
51 -0.000132477134964
52 0.0
53 -0.000230648574395
54 -0.000602221422389
55 0.0
56 0.10532165567506
57 -0.093407953355220
58 -0.090519257122213
59 -0.002198200014273
60 0.0
61 -0.003382708885424
62 -0.007066348791415
63 0.0
64 -0.010180265559185
65 0.006604123559538
66 0.0
67 -0.005215358875845
68 0.004318968252043
69 0.000013718192796
70 -0.000315594504093
71 0.000301876311297
72 0.0
73 0.0
74 0.001518412512624
75 0.000924823221593
76 -0.000610643853867
77 -0.000314179367726
78 0.0
79 0.0
80 0.001727532672509
81 0.10532189635201
82 -0.093407990602166
83 -0.090519348526754
84 -0.002198209102496
85 0.0
86 -0.007687649337483
87 -0.001508694770583
88 0.0
89 0.003849316674181
90 -0.011508037222067
91 0.0
92 0.002877980731602
93 -0.006129496903052
94 0.000013716711840
95 0.000899904117117
96 -0.000913620828957
97 0.0
98 0.0
99 0.001156019087481
100 0.000924822658858
101 0.000391586182690
102 -0.001316408841548
103 0.0
104 0.0
105 0.001428724070056
 Sym=      4.1
 Ene=      -0.8203
 Spin= Alpha
 Occup=    1.979099
1 -0.007566306866399
2 0.22720460444505
3 -0.002743928754124
4 -0.19282733755310
5 -0.048759734423407
6 0.0
7 0.58523957745114
8 0.45332416357922
9 0.0
10 -0.010239938349191
11 -0.007931821362201
12 0.0
13 -0.053768371119318
14 -0.041648782325510
15 0.0
16 0.009113041092636
17 0.007058920642904
18 -0.007381338036730
19 0.004193680323862
20 0.003187657712868
21 0.0
22 0.0
23 0.002249537851864
24 -0.012894241730339
25 0.008497833115349
26 0.004396408614990
27 0.0
28 0.0
29 0.009171028183248
30 0.006087295890772
31 -0.001231445804982
32 -0.004855850085790
33 0.0
34 0.0
35 0.008104345286357
36 0.0
37 0.002347087181534
38 0.003083911377392
39 0.0
40 -0.002736913888665
41 -0.002120002042672
42 0.0
43 -0.000412034003552
44 -0.002017499243188
45 0.0
46 0.0
47 0.000092597829601
48 -0.000545310809140
49 0.0
50 -0.000878130744776
51 -0.000680196356942
52 0.0
53 0.000753897719841
54 0.001411807579803
55 0.0
56 0.51422344124195
57 -0.067729478008718
58 -0.15046772350422
59 0.000678433902642
60 0.0
61 0.006254247760887
62 -0.011642874753658
63 0.0
64 0.016740651993993
65 -0.021955061418068
66 0.0
67 0.008603598293156
68 0.007008407502789
69 -0.001890306906961
70 -0.001592412745230
71 0.003482719652192
72 0.0
73 0.0
74 -0.002258145766809
75 -0.000287128693061
76 0.002528561589912
77 -0.002241432896851
78 0.0
79 0.0
80 -0.002522344147440
81 0.51422312589333
82 -0.067729453901446
83 -0.15046763125536
84 0.000678454922845
85 0.0
86 -0.009709581446910
87 0.008966382922006
88 0.0
89 -0.017072677584555
90 0.021697859588335
91 0.0
92 0.008936769184340
93 0.006578284515786
94 -0.001890304785611
95 0.002218754380922
96 -0.000328449595311
97 0.0
98 0.0
99 -0.003394423988845
100 -0.000287129447210
101 -0.003000835533083
102 0.003287964980293
103 0.0
104 0.0
105 -0.000873787401648
 Sym=      6.1
 Ene=       0.7828
 Spin= Alpha
 Occup=    0.022346
1 0.000000004910691
2 0.000000036751792
3 -0.000000045157113
4 0.000000677210147
5 0.000000276296353
6 0.0
7 0.81999897400204
8 -1.05861457118613
9 0.0
10 -0.046551956551657
11 0.060098256913240
12 0.0
13 -0.11770244158425
14 0.15195310958878
15 0.0
16 0.026253318535762
17 -0.033892922380723
18 0.000000013991840
19 0.022932315133473
20 -0.022932329125313
21 0.0
22 0.0
23 -0.006837102979094
24 0.000000004819916
25 0.041313927076373
26 -0.041313931896289
27 0.0
28 0.0
29 -0.012317486273725
30 -0.000000031298744
31 0.058571813750117
32 -0.058571782451374
33 0.0
34 0.0
35 -0.017462849209276
36 0.0
37 0.012274268745539
38 -0.011544660635722
39 0.0
40 -0.013016712827219
41 0.016804515063696
42 0.0
43 -0.003450946746257
44 -0.001315727488512
45 0.0
46 0.0
47 -0.006063669112330
48 0.002273411647336
49 0.0
50 -0.000698287706024
51 0.000901481208710
52 0.0
53 0.008833553502966
54 -0.003951582999279
55 0.0
56 1.01698843117496
57 0.23221509495968
58 -0.037349506295613
59 0.026309555366467
60 0.0
61 0.001878671980530
62 -0.002545219228483
63 0.0
64 -0.013179224232207
65 -0.16613415388114
66 0.0
67 -0.005469695958615
68 -0.093181248913011
69 -0.003132204829509
70 -0.000539009238512
71 0.003671214068021
72 0.0
73 0.0
74 0.001626098477380
75 -0.012232739597545
76 -0.021564121818580
77 0.033796861416125
78 0.0
79 0.0
80 0.004977761470848
81 -1.01698915498998
82 -0.23221547980396
83 0.037349395891817
84 -0.026309575432712
85 0.0
86 0.001994711865581
87 -0.002455346176451
88 0.0
89 0.16415357399732
90 -0.028773236113689
91 0.0
92 0.091589791350498
93 -0.017999510284756
94 0.003132211538720
95 -0.004089835712147
96 0.000957624173427
97 0.0
98 0.0
99 -0.000246018799480
100 0.012232750902600
101 -0.032423753872542
102 0.020191002969942
103 0.0
104 0.0
105 0.011118449171878
 Sym=      7.1
 Ene=       0.7881
 Spin= Alpha
 Occup=    0.021793
1 -0.056352705004752
2 -0.72851083368056
3 -0.065645499113284
4 -0.49613580733183
5 -0.27282139807389
6 0.0
7 -0.98030581661451
8 -0.75934127154029
9 0.0
10 0.10792571071556
11 0.083598830443421
12 0.0
13 0.23168918870673
14 0.17946554729208
15 0.0
16 -0.002432295799569
17 -0.001884073804869
18 0.024082611097571
19 -0.014435821845382
20 -0.009646789252190
21 0.0
22 0.0
23 -0.010708706603383
24 0.030346630708820
25 -0.011998091516590
26 -0.018348539192230
27 0.0
28 0.0
29 0.014199751640796
30 0.038882775880948
31 -0.017705428400781
32 -0.021177347480167
33 0.0
34 0.0
35 0.007763259420322
36 0.0
37 -0.010788747274079
38 -0.015167426299087
39 0.0
40 0.011435483379364
41 0.008857888265407
42 0.0
43 0.003039139998780
44 0.011491349483680
45 0.0
46 0.0
47 -0.000818701718169
48 -0.001359742813584
49 0.0
50 0.000626713172321
51 0.000485449968347
52 0.0
53 0.000471690444753
54 0.001338836449507
55 0.0
56 0.95136991156430
57 0.20488933285460
58 -0.13755120010957
59 0.012175949528729
60 0.0
61 0.015447842386318
62 0.000333393738063
63 0.0
64 0.082901643928817
65 -0.15408645281928
66 0.0
67 0.023140275553207
68 -0.050187605844048
69 -0.001982141552756
70 0.004551397222307
71 -0.002569255669551
72 0.0
73 0.0
74 -0.012330135183891
75 -0.014678346894790
76 -0.005608466453829
77 0.020286813348619
78 0.0
79 0.0
80 -0.015286681760403
81 0.95136887967055
82 0.20488913977685
83 -0.13755101038538
84 0.012175903974106
85 0.0
86 0.004184788931000
87 0.014873956470106
88 0.0
89 -0.12846781536295
90 0.11879096765531
91 0.0
92 -0.042808758563069
93 0.034952466483730
94 -0.001982145750755
95 -0.007293802074663
96 0.009275947825417
97 0.0
98 0.0
99 -0.008798560565679
100 -0.014678340049945
101 0.012259132701974
102 0.002419207347971
103 0.0
104 0.0
105 -0.020613809178706
 Sym=      5.1
 Ene=      -0.7131
 Spin= Alpha
 Occup=    1.978074
1 0.000000004324081
2 0.000000127856003
3 0.000000001257651
4 0.000000058654717
5 0.000000031187083
6 0.0
7 -0.45638158905568
8 0.58918658889004
9 0.0
10 0.016846855480809
11 -0.021749221055045
12 0.0
13 0.062974659703620
14 -0.081300036974081
15 0.0
16 -0.004445268847638
17 0.005738819749386
18 0.000000001374184
19 -0.011013050303571
20 0.011013048929387
21 0.0
22 0.0
23 0.003283475362530
24 0.000000002944206
25 -0.019501476283544
26 0.019501473339338
27 0.0
28 0.0
29 0.005814248536483
30 -0.000000000028613
31 0.000228177019459
32 -0.000228176990846
33 0.0
34 0.0
35 -0.000068032089456
36 0.0
37 -0.000520421795446
38 0.001149553152777
39 0.0
40 0.001923816886033
41 -0.002483639282449
42 0.0
43 -0.001225597779079
44 0.000941351886434
45 0.0
46 0.0
47 -0.002207508155645
48 0.001682207167632
49 0.0
50 0.001521952005689
51 -0.001964833869218
52 0.0
53 0.001439730972455
54 -0.000292083878220
55 0.0
56 0.59748778852573
57 -0.074817020631158
58 -0.19074260049284
59 -0.004665144521327
60 0.0
61 -0.003950839982608
62 -0.014175621198230
63 0.0
64 -0.009071527668009
65 -0.028012068685035
66 0.0
67 -0.004444168261957
68 0.007437359279129
69 -0.003594321811932
70 -0.003082274765888
71 0.006676596577820
72 0.0
73 0.0
74 0.001674941912823
75 0.000195995992208
76 -0.001072264690934
77 0.000876268698727
78 0.0
79 0.0
80 0.002902876811902
81 -0.59748801054936
82 0.074817028642861
83 0.19074263638609
84 0.004665142310667
85 0.0
86 0.014713198189023
87 0.000281450717074
88 0.0
89 0.029390461998421
90 0.001780389363379
91 0.0
92 -0.006090142480908
93 0.006162388821515
94 0.003594322902601
95 -0.006768905214992
96 0.003174582312391
97 0.0
98 0.0
99 0.001262133370227
100 -0.000195994871503
101 -0.001971558240647
102 0.002167553112150
103 0.0
104 0.0
105 -0.001995376572183
 Sym=      8.1
 Ene=       0.0430
 Spin= Alpha
 Occup=    0.000000
1 -0.004270948544723
2 0.006523751005906
3 -0.006349570170256
4 1.01620276526333
5 3.39711701250833
6 0.0
7 -0.049453339051661
8 -0.038306349105772
9 0.0
10 0.037523765385004
11 0.029065719492941
12 0.0
13 0.31748232284138
14 0.24592020966658
15 0.0
16 0.34796738344712
17 0.26953370665833
18 0.000541010521505
19 -0.000319164921373
20 -0.000221845600132
21 0.0
22 0.0
23 -0.000217611737158
24 -0.029812690079096
25 0.012456014442082
26 0.017356675637014
27 0.0
28 0.0
29 -0.010958191445706
30 -0.062518183818757
31 0.024333383193943
32 0.038184800624813
33 0.0
34 0.0
35 -0.030972665284145
36 0.0
37 0.001016436669785
38 0.001800187427332
39 0.0
40 -0.000648718572131
41 -0.000502493955914
42 0.0
43 -0.000714974320947
44 -0.001912710919939
45 0.0
46 0.0
47 0.006539214267477
48 0.010519238651905
49 0.0
50 -0.005400027368046
51 -0.004182833703049
52 0.0
53 -0.003373249204862
54 -0.009930205915273
55 0.0
56 0.060324230675146
57 -0.27928802205755
58 -1.33645196368063
59 -1.01305816062495
60 0.0
61 0.000750555180633
62 0.001801262682803
63 0.0
64 0.002178546258398
65 0.15377876484872
66 0.0
67 0.038110414681187
68 0.48440288179683
69 0.004212275681897
70 0.004637326927354
71 -0.008849602609251
72 0.0
73 0.0
74 -0.001120926003913
75 0.027328565742969
76 0.028054418421727
77 -0.055382984164696
78 0.0
79 0.0
80 0.001033688238452
81 0.060324237773398
82 -0.27928818623198
83 -1.33645266123648
84 -1.01305921492785
85 0.0
86 0.001931705439541
87 0.000276403064146
88 0.0
89 0.14944028902304
90 -0.036335576131774
91 0.0
92 0.47854876090389
93 -0.084201286203218
94 0.004212277727523
95 -0.008476628348780
96 0.004264350621256
97 0.0
98 0.0
99 0.002788926779252
100 0.027328573835457
101 -0.049734707244685
102 0.022406133409228
103 0.0
104 0.0
105 0.024226083820358
 Sym=      9.1
 Ene=       0.0537
 Spin= Alpha
 Occup=    0.000000
1 -0.000000001891954
2 -0.000000018722990
3 -0.000000000740584
4 0.000000003224763
5 0.000000337956254
6 0.0
7 0.016483659812007
8 -0.021280353065613
9 0.0
10 -0.026296636063644
11 0.033948855822533
12 0.0
13 -0.34965812142687
14 0.45140731292936
15 0.0
16 -0.78155520206594
17 1.00898496649055
18 0.000000000198540
19 -0.000397034906171
20 0.000397034707630
21 0.0
22 0.0
23 0.000118374265003
24 0.000000000230165
25 -0.031506240994336
26 0.031506240764171
27 0.0
28 0.0
29 0.009393399924458
30 0.000000005545210
31 -0.11612590449572
32 0.11612589895051
33 0.0
34 0.0
35 0.034622225575704
36 0.0
37 -0.001161800425464
38 0.000627711865934
39 0.0
40 0.000265533859850
41 -0.000342803808503
42 0.0
43 0.001293184976725
44 -0.000499360033005
45 0.0
46 0.0
47 -0.004908965178030
48 0.005582989084549
49 0.0
50 0.007213296190726
51 -0.009312335277516
52 0.0
53 -0.000627228288373