[Molden Format]
[Molpro variables]
_NUMVAR=  895.0000000000000    
_AVOGAD= 0.6022136736000000E+24
_BOLTZ= 0.1380658000000000E-22
_CLIGHT=  29979245800.00000    
_EV= 0.3674932379085202E-01
_ENULL= 0.8854187817000000E-11
_KJOULE= 0.3808798324128737E-03
_KJOULE/MOL= 0.3808798324128737E-03
_CM= 0.4556335267302901E-05
_CM-1= 0.4556335267302901E-05
_DEB2SI= 0.3335641000000000E-29
_AMU2AU=  1822.888390000000    
_KCAL= 0.1593601117815568E-02
_KCAL/MOL= 0.1593601117815568E-02
_KELVIN= 0.3166811411060229E-05
_JOULE= 0.4359748200000000E-17
_HERTZ= 0.1519829846004524E-15
_HZ= 0.1519829846004524E-15
_JPCAL=  4.184000000000000    
_PLANCK= 0.6626075540000000E-33
_TOA= 0.5291772109200000    
_TOANG= 0.5291772109200000    
_TORAD= 0.1745329251994330E-01
_TOCM=  219474.6306700000    
_TODEBYE=  2.541580000000000    
_TOE= 0.4803242000000000E-09
_TOEV=  27.21138505000000    
_TOHERTZ=  6579683920729000.    
_TOHZ=  6579683920729000.    
_TOK=  315775.0400000000    
_TOKCAL=  627.5096000000000    
_TOKELVIN=  315775.0400000000    
_TOKJ=  2625.500000000000    
_TOKJOULE=  2625.500000000000    
_TOKG= 0.1660565586000000E-26
_ANG=  1.889726124565062    
_ANGSTROM=  1.889726124565062    
_RPAREF=  0.000000000000000    
_RPADISS=  0.000000000000000    
_IGNORE_UNDEF=  2.000000000000000    
_STRICTCHECK=  0.000000000000000    
_SEW_ONEEL=  0.000000000000000    
_CPPDONE=FALSE
_DKROLL_DONE=  0.000000000000000    
_FOCKDONE=  0.000000000000000    
_GRADONE=FALSE
_HESSDONE=FALSE
_INTDONE=TRUE
_SCFDONE=TRUE
_MODUL_BLOCK=FALSE
_MODUL_CUDA=FALSE
_MODUL_SLATER=FALSE
_MODUL_MRCC=FALSE
_MODUL_NBO6=FALSE
_MODUL_NECI=TRUE
_MODUL_AIMS=TRUE
_MRCC_EXEC=
_FITC_AO_SAVED=FALSE
_FITC_MO_SAVED=FALSE
_SHARED_FS=TRUE
_LSTYP=SEWARD
_INTYP=INTS
_GEOMTYP=ZMAT
_GRADTYP=ALASKA
_DIRECT=FALSE
_DKHO= -1.000000000000000    
_SYNCM=  0.000000000000000    
_BASIS=AUG-CC-PVTZ
_ZORIENT=  1.000000000000000    
_NELEC=  10.00000000000000    
!SPIN=  0.000000000000000    
_QSDSTEP=  0.000000000000000    
_QSDIRC=  0.000000000000000    
_PROGRAM=CI
_CPUSTEP=  25.19000000000000    
_SYSSTEP= 0.9000000000000008E-01
_WALLSTEP=  30.75000000000000    
!DFMP2=  0.000000000000000    
!DFSCF=  0.000000000000000    
!SCSGRD=  0.000000000000000    
_BASINP=  610.0000000000000    
_CPUTOT=  102.3800000000000    
_DFTEXFAC=  1.000000000000000    
_DMX=  0.000000000000000    
_DMY=  0.000000000000000    
_DMZ= 0.7214173828289884    
_DMX_SCF=  0.000000000000000    
_DMY_SCF=  0.000000000000000    
_DMZ_SCF= 0.7804132994550347    
_EHOMO=-0.5103267420159783    
_ELUMO= 0.2943459843286915E-01
_EIGS= -20.56730866992452    
_ENERGD= -76.33893607944033    
_ENERGD0= -76.33893607944033    
_ENERGD1= -76.33902786609907    
_ENERGD2= -76.33902786609907    
_ENERGP= -76.33655034580389    
_ENERGP0= -76.33655034580389    
_ENERGP1= -76.33662252271843    
_ENERGP2= -76.33662252271843    
_ENERGR= -76.11391215669531    
_ENERGY= -76.32865024570359    
_ENERGY_METHOD=CI
_ENERGY_BASIS=aug-cc-pVTZ
_GEOMETRY_METHOD=
_GEOMETRY_BASIS=
_ENUC=  9.189201743985828    
_GRADEXFAC=  9999.000000000000    
_GRADMETHOD=FALSE
_NMRMETHOD=  0.000000000000000    
_NMRMAGNET=  0.000000000000000    
!GRID_FREEZE= -1.000000000000000    
_ITERATIONS=  7.000000000000000    
_LASTNELEC=  8.000000000000000    
_LASTSPIN=  0.000000000000000    
_LASTSYM=  1.000000000000000    
_MPP_PROG=  1.000000000000000    
_MSNSTATES=  0.000000000000000    
_RS2PHASE=  0.000000000000000    
_NPROC_MPP=  23.00000000000000    
_NPROC_MPPX=  23.00000000000000    
_NPROC_SMP=  1.000000000000000    
_NUMSTEP=  0.000000000000000    
_ORBITAL=  2140.200000000000    
_PI=  3.141592653589793    
!MCACT=  3.000000000000000    
!MCCLOSED=  1.000000000000000    
!MCFREEZE=  0.000000000000000    
!MCMS2=  0.000000000000000    
!MCNEL=  8.000000000000000    
!MCNSTSYM=  1.000000000000000    
!MCSTATE=  1.000000000000000    
!MCSYM=  1.000000000000000    
!MCWEIGHT=  1.000000000000000    
_SEIG_MIN= 0.3845584429692830E-03
_SEWPROP=TRUE
_STATUS=  1.000000000000000    
_SYSTOT= 0.4800000000000001    
_VERSION=  2015001.000000000    
_WALLTOT=  115.3000000000000    
_DATE=14-Feb-20
_LASTORB=MCSCF
_MACHINE= 64 bit mpp version
_OUTPUT=/global/cscratch1/sd/rbello/Quantum_Chem/molpro.xml
_PGROUP=C2v
_TIME=13:49:55
_LIBMOL=/global/common/cori/software/molpro/2015/molprop_2015_1_linux_x86_64_i8/lib/
_VIGRDC=  0.000000000000000    
!VIBCNT=  0.000000000000000    
!RGHFCNT=  0.000000000000000    
!SURFREC=  0.000000000000000    
!ROTREC=  0.000000000000000    
!POLYREC=  0.000000000000000    
!DIPREC=  0.000000000000000    
!DIP4DREC=  0.000000000000000    
!DIPROT=  0.000000000000000    
!DIP4DROT=  0.000000000000000    
!PTREC=  0.000000000000000    
!PT4DREC=  0.000000000000000    
!VSCFREC=  0.000000000000000    
!VCIREC=  0.000000000000000    
!PVCIREC=  0.000000000000000    
!VMP2REC=  0.000000000000000    
!VMCSCFREC=  0.000000000000000    
!VMRCIREC=  0.000000000000000    
!VIBSTATEREC=  0.000000000000000    
!VIBSTATECNT=  0.000000000000000    
!VIBINFO=  0.000000000000000    
!GAREC=  0.000000000000000    
!SCFORB=  21002.00000000000    
!MCORB=  21402.00000000000    
!CIOCC=  4.000000000000000    
!CICORE=  1.000000000000000    
!CICLOS=  1.000000000000000    
!CIISTSYM=  1.000000000000000    
!CIISTMS2=  0.000000000000000    
!CIISTNEL=  8.000000000000000    
!NEWMOL= -1.000000000000000    
!NEWSYM= -1.000000000000000    
_SLFILES=slscratch
_NGSSTO=  9.000000000000000    
_SIN=SIN
_COS=COS
_TAN=TAN
_ACOS=ACOS
_ASIN=ASIN
_ATAN=ATAN
_COSH=COSH
_SINH=SINH
_TANH=TANH
_ABS=ABS
_MOD=MOD
_ERF=ERF
_REFC=REFC
_ERFC=ERFC
_HYPOT=HYPOT
_J0=J0
_J1=J1
_JN=JN
_GAMMA=GAMMA
_LGAMMA=LGAMMA
_Y0=Y0
_Y1=Y1
_YN=YN
_EXP=EXP
_LOG=LOG
_LOG10=LOG10
_SQRT=SQRT
_INT=INT
_NINT=NINT
_MAX=MAX
_MIN=MIN
_COSMO=  0.000000000000000    
_COSMOIT=  0.000000000000000    
_COSMOES=  0.000000000000000    
_COSMOEDS=  0.000000000000000    
_COSMOEC=  0.000000000000000    
_COSMOEDCORR=  0.000000000000000    
_FEPSI=  1.000000000000000    
_SL_IsMM=  0.000000000000000    
_SL_NSYM=  4.000000000000000    
_SL_System_BitSw=  0.000000000000000    
_SL_Unique_atoms=  0.000000000000000    
_SL_GRAD=  0.000000000000000    
_SL_MAXUPD_Hess=  5.000000000000000    
_SL_N_PRINT_COD=  5.000000000000000    
_SL_PRINT_CODES=  0.000000000000000    
_SL_BasType=  0.000000000000000    
_SL_Energy_Pred=  0.000000000000000    
_SL_New_Coords=  0.000000000000000    
_SL_Total_Nuclea=  0.000000000000000    
_SL_Highest_Mltp=  0.000000000000000    
_SL_Ref_Geom=  0.000000000000000    
_SL_Symmetry_ope=  1.000000000000000    
_SL_agrad=  0.000000000000000    
_SL_GrdMax=  0.000000000000000    
_SL_GrdNorm=  0.000000000000000    
_SL_GrdRMS=  0.000000000000000    
_SL_Hss_Q=  0.000000000000000    
_SL_Hss_X=  0.000000000000000    
_SL_BMxOld=  0.000000000000000    
_SL_KtB=  0.000000000000000    
_SL_TROld=  0.000000000000000    
_SL_No_of_Intern=  0.000000000000000    
_SL_Hess=  0.000000000000000    
_SL_K=  0.000000000000000    
!LATTICE= -1.000000000000000    
!NEWLATTICE=  0.000000000000000    
!LATGRAD_VAR=FALSE
!SEW_LATTICE=  1.000000000000000    
!LOCAL=  0.000000000000000    
!SAVEDOM= -1.000000000000000    
!RESTDOM= -1.000000000000000    
!SAVEDOM_HF= -1.000000000000000    
!RESTDOM_HF= -1.000000000000000    
!HESSREC=  0.000000000000000    
!FREQREC=  0.000000000000000    
!NMODREC=  0.000000000000000    
!GTASKS=  0.000000000000000    
!HTASKS=  0.000000000000000    
!SAVEDOM_EOM= -1.000000000000000    
!RESTDOM_EOM= -1.000000000000000    
!GRADSTATE= -1.000000000000000    
!THRCHG= 0.1000000000000000    
!DEBUG= -1.000000000000000    
!CFIT_CPHF=  0.000000000000000    
!RDOMAUX_CPHF=  3.000000000000000    
!THRAO_CPHF= 0.1000000000000000E-09
!THRMO_CPHF= 0.1000000000000000E-08
!THROV_CPHF= 0.1000000000000000E-11
!THRSW_CPHF= 0.1000000000000000E-09
!THRPROD_CPHF= 0.1000000000000000E-08
!THRAOPR_CPHF= 0.1000000000000000E-11
!CFIT_SCFGRD=  0.000000000000000    
!RDOMAUX_SCFGRD=  5.000000000000000    
!THRAO_SCFGRD= 0.1000000000000000E-09
!THRMO_SCFGRD= 0.1000000000000000E-08
!THROV_SCFGRD= 0.1000000000000000E-11
!THRSW_SCFGRD= 0.1000000000000000E-09
!THRPROD_SCFGRD= 0.1000000000000000E-08
!THRAOPR_SCFGRD= 0.1000000000000000E-11
!LOCFIT_SCF=  0.000000000000000    
!LOCFIT_MP2= -1.000000000000000    
_RIDOM=  0.000000000000000    
!CC2_METHOD=  0.000000000000000    
_BASIS2006=FALSE
_SVDDEL= -1.000000000000000    
_SVDDELA= -1.000000000000000    
_SVDDELP= -1.000000000000000    
_SVDDELF= -1.000000000000000    
_SVDDELS= -1.000000000000000    
_SVDDEL_ABS= -1.000000000000000    
_SVDDELA_ABS= -1.000000000000000    
_SVDDELP_ABS= -1.000000000000000    
_SVDDELF_ABS= -1.000000000000000    
_SVDDELS_ABS= -1.000000000000000    
_MAXBASIS=  0.000000000000000    
!OPT_CONICAL=  0.000000000000000    
!CLEARSP_JGRID=  0.000000000000000    
_GRDHYBR=  0.000000000000000    
_STATEGRAD=  1.000000000000000    
_4EXT_NDISKS=  1.000000000000000    
_C0= 0.9542900434261885    
_C0R= 0.9539009497694778    
!ZMP=  0.000000000000000    
_MAXIT_ZMP=  500.0000000000000    
_MAXDIS_ZMP=  100.0000000000000    
_ACCU_ZMP=  14.00000000000000    
_SHIFTA_ZMP= -100.0000000000000    
!EMBEDFLAG=  1.000000000000000    
!EMBED=FALSE
!EMBED_F12=FALSE
!EMBEDNUC=  0.000000000000000    
_EMBEDENERGY=  0.000000000000000    
_KSPACETIME=  0.000000000000000    
_RSPACETIME=  0.000000000000000    
!EMBED_DFC=FALSE
!NUM_VOIDS=  0.000000000000000    
_IBODY=  0.000000000000000    
_EMBE_TOTAL=  0.000000000000000    
_EMBE_HF=  0.000000000000000    
_EMBE_CORR=  0.000000000000000    
!EMBED_PROJ=FALSE
!EMBED_TRUNC=  0.000000000000000    
!EMB_PROJ_ZMU=  1000000.000000000    
!CORRECTION=  0.000000000000000    
!CORRECTION_HF=  0.000000000000000    
!EMBED_ENERGY=  0.000000000000000    
!EMBED_NAXC=FALSE
!EMBED_AORB=  0.000000000000000    
!EMBED_NACORR=  0.000000000000000    
!EMBED_MP2=FALSE
!EMBED_TRUNC_PERTURBATION=FALSE
!EMBED_FROZEN=  0.000000000000000    
_CHANGE_BASIS=FALSE
_RESTORE_BASIS=FALSE
_FIX_EMBED_GUESS=FALSE
!EDFT=  0.000000000000000    
_IFASTLATGRAD=  0.000000000000000    
_SINDEX=  0.000000000000000    
_AVDOM_OSV=  0.000000000000000    
_AVDOM_PNO=  0.000000000000000    
_AVDOM_PAO=  0.000000000000000    
_AVDOM_LMO=  0.000000000000000    
_CC2OSV_FLAG=  0.000000000000000    
_TMADC2_FLAG=FALSE
_PROPADC2_FLAG=FALSE
_LEN_VirQ=  0.000000000000000    
_GRDCC2LR_FLAG=FALSE
_GRDADC2_FLAG=FALSE
_DMX_CC=  0.000000000000000    
_DMY_CC=  0.000000000000000    
_DMZ_CC= 0.2466016270223850    
_DMX_NUC=  0.000000000000000    
_DMY_NUC=  0.000000000000000    
_DMZ_NUC= 0.9765125978100001    
R=  1.810000000000000    
AHOH=  104.4776000000000    
GX1=  0.000000000000000    
GY1= 0.1170844633972236E-19
GZ1=-0.1240273426303318    
GX2=  0.000000000000000    
GY2=  1.430931490612923    
GZ2= 0.9843656694246333    
GX3=  0.000000000000000    
GY3= -1.430931490612923    
GZ3= 0.9843656694246333    
[Atoms] Angs
O     1    8         0.0000000000        0.0000000000       -0.0656324433
H     2    1         0.0000000000        0.7572163352        0.5209038795
H     3    1         0.0000000000       -0.7572163352        0.5209038795
[GTO]
   1 0
 s   10  1.00
  0.1533000000D+05  0.5079996682D-03
  0.2299000000D+04  0.3928997434D-02
  0.5224000000D+03  0.2024298678D-01
  0.1473000000D+03  0.7918094828D-01
  0.4755000000D+02  0.2306868493D+00
  0.1676000000D+02  0.4331177171D+00
  0.6207000000D+01  0.3502597712D+00
  0.1752000000D+01  0.4272797209D-01
  0.6882000000D+00 -0.8153994674D-02
  0.2384000000D+00  0.2380998445D-02
 s   10  1.00
  0.1533000000D+05 -0.1150000604D-03
  0.2299000000D+04 -0.8950004697D-03
  0.5224000000D+03 -0.4636002433D-02
  0.1473000000D+03 -0.1872400983D-01
  0.4755000000D+02 -0.5846303068D-01
  0.1676000000D+02 -0.1364630716D+00
  0.6207000000D+01 -0.1757400922D+00
  0.1752000000D+01  0.1609340845D+00
  0.6882000000D+00  0.6034183167D+00
  0.2384000000D+00  0.3787651988D+00
 s   10  1.00
  0.1533000000D+05  0.0000000000D+00
  0.2299000000D+04  0.0000000000D+00
  0.5224000000D+03  0.0000000000D+00
  0.1473000000D+03  0.0000000000D+00
  0.4755000000D+02  0.0000000000D+00
  0.1676000000D+02  0.0000000000D+00
  0.6207000000D+01  0.0000000000D+00
  0.1752000000D+01  0.1000000000D+01
  0.6882000000D+00  0.0000000000D+00
  0.2384000000D+00  0.0000000000D+00
 s   10  1.00
  0.1533000000D+05  0.0000000000D+00
  0.2299000000D+04  0.0000000000D+00
  0.5224000000D+03  0.0000000000D+00
  0.1473000000D+03  0.0000000000D+00
  0.4755000000D+02  0.0000000000D+00
  0.1676000000D+02  0.0000000000D+00
  0.6207000000D+01  0.0000000000D+00
  0.1752000000D+01  0.0000000000D+00
  0.6882000000D+00  0.0000000000D+00
  0.2384000000D+00  0.1000000000D+01
 s    1  1.00
  0.7376000000D-01  0.1000000000D+01
 p    5  1.00
  0.3446000000D+02  0.1592799074D-01
  0.7749000000D+01  0.9973994203D-01
  0.2280000000D+01  0.3104918195D+00
  0.7156000000D+00  0.4910257146D+00
  0.2140000000D+00  0.3363368045D+00
 p    5  1.00
  0.3446000000D+02  0.0000000000D+00
  0.7749000000D+01  0.0000000000D+00
  0.2280000000D+01  0.0000000000D+00
  0.7156000000D+00  0.1000000000D+01
  0.2140000000D+00  0.0000000000D+00
 p    5  1.00
  0.3446000000D+02  0.0000000000D+00
  0.7749000000D+01  0.0000000000D+00
  0.2280000000D+01  0.0000000000D+00
  0.7156000000D+00  0.0000000000D+00
  0.2140000000D+00  0.1000000000D+01
 p    1  1.00
  0.5974000000D-01  0.1000000000D+01
 d    1  1.00
  0.2314000000D+01  0.1000000000D+01
 d    1  1.00
  0.6450000000D+00  0.1000000000D+01
 d    1  1.00
  0.2140000000D+00  0.1000000000D+01
 f    1  1.00
  0.1428000000D+01  0.1000000000D+01
 f    1  1.00
  0.5000000000D+00  0.1000000000D+01
  
   2 0
 s    5  1.00
  0.3387000000D+02  0.6067999217D-02
  0.5095000000D+01  0.4530799416D-01
  0.1159000000D+01  0.2028219738D+00
  0.3258000000D+00  0.5039029350D+00
  0.1027000000D+00  0.3834209505D+00
 s    5  1.00
  0.3387000000D+02  0.0000000000D+00
  0.5095000000D+01  0.0000000000D+00
  0.1159000000D+01  0.0000000000D+00
  0.3258000000D+00  0.1000000000D+01
  0.1027000000D+00  0.0000000000D+00
 s    5  1.00
  0.3387000000D+02  0.0000000000D+00
  0.5095000000D+01  0.0000000000D+00
  0.1159000000D+01  0.0000000000D+00
  0.3258000000D+00  0.0000000000D+00
  0.1027000000D+00  0.1000000000D+01
 s    1  1.00
  0.2526000000D-01  0.1000000000D+01
 p    1  1.00
  0.1407000000D+01  0.1000000000D+01
 p    1  1.00
  0.3880000000D+00  0.1000000000D+01
 p    1  1.00
  0.1020000000D+00  0.1000000000D+01
 d    1  1.00
  0.1057000000D+01  0.1000000000D+01
 d    1  1.00
  0.2470000000D+00  0.1000000000D+01
  
   3 0
 s    5  1.00
  0.3387000000D+02  0.6067999217D-02
  0.5095000000D+01  0.4530799416D-01
  0.1159000000D+01  0.2028219738D+00
  0.3258000000D+00  0.5039029350D+00
  0.1027000000D+00  0.3834209505D+00
 s    5  1.00
  0.3387000000D+02  0.0000000000D+00
  0.5095000000D+01  0.0000000000D+00
  0.1159000000D+01  0.0000000000D+00
  0.3258000000D+00  0.1000000000D+01
  0.1027000000D+00  0.0000000000D+00
 s    5  1.00
  0.3387000000D+02  0.0000000000D+00
  0.5095000000D+01  0.0000000000D+00
  0.1159000000D+01  0.0000000000D+00
  0.3258000000D+00  0.0000000000D+00
  0.1027000000D+00  0.1000000000D+01
 s    1  1.00
  0.2526000000D-01  0.1000000000D+01
 p    1  1.00
  0.1407000000D+01  0.1000000000D+01
 p    1  1.00
  0.3880000000D+00  0.1000000000D+01
 p    1  1.00
  0.1020000000D+00  0.1000000000D+01
 d    1  1.00
  0.1057000000D+01  0.1000000000D+01
 d    1  1.00
  0.2470000000D+00  0.1000000000D+01
 
 
[MO]
 Sym=      1.1
 Ene=       0.0000
 Spin= Alpha
 Occup=    2.000000
1 0.99554875807339
2 -0.077817842281362
3 0.001926186893466
4 -0.007655041614791
5 -0.005920611156541
6 0.0
7 0.0
8 0.033484000050247
9 0.0
10 0.0
11 -0.004891605270642
12 0.0
13 0.0
14 -0.002508491988466
15 0.0
16 0.0
17 0.000544329904662
18 -0.000097413505151
19 -0.000121851609779
20 0.000219265114930
21 0.0
22 0.0
23 0.0
24 0.000694140158200
25 -0.001108268829259
26 0.000414128671059
27 0.0
28 0.0
29 0.0
30 -0.000069860650299
31 -0.000157980749058
32 0.000227841399357
33 0.0
34 0.0
35 0.0
36 0.0
37 0.0
38 0.000066946419997
39 0.0
40 0.0
41 -0.000008077933599
42 0.0
43 0.0
44 -0.000081740113979
45 0.0
46 0.0
47 0.0
48 0.000121483012171
49 0.0
50 0.0
51 0.000096789711482
52 0.0
53 0.0
54 -0.000259776275478
55 0.0
56 -0.007296299150831
57 0.007681390973576
58 0.006658443339010
59 0.000204965349769
60 0.0
61 0.000162897455788
62 0.000498676948317
63 0.0
64 -0.001551252527696
65 -0.000237393224948
66 0.0
67 -0.000653719033415
68 0.000042229375083
69 0.000070198732565
70 0.000064444003341
71 -0.000134642735906
72 0.0
73 0.0
74 -0.000197030994652
75 -0.000306447790459
76 0.000336821725339
77 -0.000030373934879
78 0.0
79 0.0
80 0.000355114126390
81 -0.007296299150831
82 0.007681390973576
83 0.006658443339010
84 0.000204965349769
85 0.0
86 -0.000162897455788
87 0.000498676948317
88 0.0
89 0.001551252527696
90 -0.000237393224948
91 0.0
92 0.000653719033415
93 0.000042229375083
94 0.000070198732565
95 0.000064444003341
96 -0.000134642735906
97 0.0
98 0.0
99 0.000197030994652
100 -0.000306447790459
101 0.000336821725339
102 -0.000030373934879
103 0.0
104 0.0
105 -0.000355114126390
 Sym=      2.1
 Ene=       0.0000
 Spin= Alpha
 Occup=    1.983154
1 0.072128329588084
2 0.91778598323455
3 -0.001439484765732
4 0.027581499019023
5 0.060788997183171
6 0.0
7 0.0
8 -0.12387979349757
9 0.0
10 0.0
11 0.011477153284886
12 0.0
13 0.0
14 -0.008961233662127
15 0.0
16 0.0
17 -0.001975391673524
18 -0.002056650903797
19 0.002847360227403
20 -0.000790709323607
21 0.0
22 0.0
23 0.0
24 -0.006292550798216
25 0.007752007626347
26 -0.001459456828131
27 0.0
28 0.0
29 0.0
30 0.001853795671806
31 -0.000612125582225
32 -0.001241670089582
33 0.0
34 0.0
35 0.0
36 0.0
37 0.0
38 -0.001038980241980
39 0.0
40 0.0
41 -0.000808475465561
42 0.0
43 0.0
44 0.002202413734569
45 0.0
46 0.0
47 0.0
48 0.000354299516689
49 0.0
50 0.0
51 -0.000017126762454
52 0.0
53 0.0
54 -0.000458215919773
55 0.0
56 0.24979134101088
57 -0.10696314212107
58 -0.13069424199552
59 -0.002058056333205
60 0.0
61 -0.007067046260768
62 -0.007509644548539
63 0.0
64 0.002956735333690
65 -0.004333297459454
66 0.0
67 0.006595176783263
68 0.001157807313057
69 -0.000375758622355
70 -0.000276441719331
71 0.000652200341686
72 0.0
73 0.0
74 0.001097173816007
75 0.001196469717504
76 -0.001581211673453
77 0.000384741955949
78 0.0
79 0.0
80 -0.001035200998181
81 0.24979134101088
82 -0.10696314212107
83 -0.13069424199552
84 -0.002058056333205
85 0.0
86 0.007067046260768
87 -0.007509644548539
88 0.0
89 -0.002956735333690
90 -0.004333297459454
91 0.0
92 -0.006595176783263
93 0.001157807313057
94 -0.000375758622355
95 -0.000276441719331
96 0.000652200341686
97 0.0
98 0.0
99 -0.001097173816007
100 0.001196469717504
101 -0.001581211673453
102 0.000384741955949
103 0.0
104 0.0
105 0.001035200998181
 Sym=      1.2
 Ene=       0.0000
 Spin= Alpha
 Occup=    1.967563
1 0.0
2 0.0
3 0.0
4 0.0
5 0.0
6 0.92110052087308
7 0.0
8 0.0
9 -0.010819757004769
10 0.0
11 0.0
12 0.017279816072138
13 0.0
14 0.0
15 0.037853568891823
16 0.0
17 0.0
18 0.0
19 0.0
20 0.0
21 0.0
22 0.005841277445966
23 0.0
24 0.0
25 0.0
26 0.0
27 0.0
28 0.014724414714567
29 0.0
30 0.0
31 0.0
32 0.0
33 0.0
34 0.007162144197305
35 0.0
36 -0.003618729891250
37 0.0
38 0.0
39 0.003377894921044
40 0.0
41 0.0
42 0.001477140696383
43 0.0
44 0.0
45 0.0
46 -0.002056853175024
47 0.0
48 0.0
49 0.001634373836649
50 0.0
51 0.0
52 0.001125184274805
53 0.0
54 0.0
55 0.0
56 0.0
57 0.0
58 0.0
59 0.0
60 0.010916553960522
61 0.0
62 0.0
63 0.030660286950132
64 0.0
65 0.0
66 0.022042228198047
67 0.0
68 0.0
69 0.0
70 0.0
71 0.0
72 -0.003577548453218
73 -0.002713775987073
74 0.0
75 0.0
76 0.0
77 0.0
78 -0.005687856830299
79 -0.003795238056337
80 0.0
81 0.0
82 0.0
83 0.0
84 0.0
85 0.010916553960522
86 0.0
87 0.0
88 0.030660286950132
89 0.0
90 0.0
91 0.022042228198047
92 0.0
93 0.0
94 0.0
95 0.0
96 0.0
97 0.003577548453218
98 -0.002713775987073
99 0.0
100 0.0
101 0.0
102 0.0
103 0.005687856830299
104 -0.003795238056337
105 0.0
 Sym=      3.1
 Ene=       0.0000
 Spin= Alpha
 Occup=    1.962229
1 -0.029735390711244
2 -0.037941018785506
3 -0.002765706905587
4 -0.20440218315455
5 -0.072799687796743
6 0.0
7 0.0
8 0.81633592530648
9 0.0
10 0.0
11 -0.020573633578659
12 0.0
13 0.0
14 -0.065919506814904
15 0.0
16 0.0
17 0.013938938832881
18 -0.006580560558683
19 0.000574084161342
20 0.006006476397341
21 0.0
22 0.0
23 0.0
24 -0.011067953995816
25 -0.005537678352790
26 0.016605632348606
27 0.0
28 0.0
29 0.0
30 0.005311485918730
31 -0.011289816993287
32 0.005978331074557
33 0.0
34 0.0
35 0.0
36 0.0
37 0.0
38 0.000260397841726
39 0.0
40 0.0
41 -0.003191027215829
42 0.0
43 0.0
44 0.002841666850653
45 0.0
46 0.0
47 0.0
48 0.001599627073086
49 0.0
50 0.0
51 -0.001292219320547
52 0.0
53 0.0
54 -0.000853905603895
55 0.0
56 0.45883667116456
57 -0.042939629369534
58 -0.11534439764130
59 0.001554387385783
60 0.0
61 -0.011826221950691
62 -0.000213391708950
63 0.0
64 -0.029689189779860
65 0.000586957500401
66 0.0
67 -0.002357429093305
68 0.011530995748877
69 -0.001901743472469
70 0.003709716728406
71 -0.001807973255936
72 0.0
73 0.0
74 0.002214822218252
75 -0.000783274416049
76 0.002215894603656
77 -0.001432620187607
78 0.0
79 0.0
80 -0.002566906698958
81 0.45883667116456
82 -0.042939629369534
83 -0.11534439764130
84 0.001554387385783
85 0.0
86 0.011826221950691
87 -0.000213391708950
88 0.0
89 0.029689189779860
90 0.000586957500401
91 0.0
92 0.002357429093305
93 0.011530995748877
94 -0.001901743472469
95 0.003709716728406
96 -0.001807973255936
97 0.0
98 0.0
99 -0.002214822218252
100 -0.000783274416049
101 0.002215894603656
102 -0.001432620187607
103 0.0
104 0.0
105 0.002566906698958
 Sym=      1.3
 Ene=       0.0000
 Spin= Alpha
 Occup=    1.961131
1 0.0
2 0.0
3 0.0
4 0.0
5 0.0
6 0.0
7 0.75288103163481
8 0.0
9 0.0
10 -0.031273415188680
11 0.0
12 0.0
13 -0.10286324824838
14 0.0
15 0.0
16 0.007545338973751
17 0.0
18 0.0
19 0.0
20 0.0
21 0.0
22 0.0
23 0.012250872372597
24 0.0
25 0.0
26 0.0
27 0.0
28 0.0
29 0.021768541639913
30 0.0
31 0.0
32 0.0
33 0.0
34 0.0
35 -0.000759097386000
36 0.0
37 0.002336213341802
38 0.0
39 0.0
40 -0.002966684423942
41 0.0
42 0.0
43 -0.000167674681385
44 0.0
45 0.0
46 0.0
47 0.000290610795732
48 0.0
49 0.0
50 -0.002606975957004
51 0.0
52 0.0
53 0.002217080660453
54 0.0
55 0.0
56 0.59514574862685
57 -0.077568928811781
58 -0.18834139355690
59 -0.004498072847465
60 0.0
61 -0.008856100679516
62 -0.012186726278347
63 0.0
64 -0.016492875941731
65 -0.025462920411902
66 0.0
67 0.008165225844319
68 0.000152956432160
69 -0.003595217760577
70 0.001612799747015
71 0.001982418013562
72 0.0
73 0.0
74 0.005928251370558
75 0.000072398745040
76 -0.002152279175940
77 0.002079880430899
78 0.0
79 0.0
80 0.002062422373560
81 -0.59514574862685
82 0.077568928811781
83 0.18834139355690
84 0.004498072847465
85 0.0
86 -0.008856100679516
87 0.012186726278347
88 0.0
89 -0.016492875941731
90 0.025462920411902
91 0.0
92 0.008165225844319
93 -0.000152956432160
94 0.003595217760577
95 -0.001612799747015
96 -0.001982418013562
97 0.0
98 0.0
99 0.005928251370558
100 -0.000072398745040
101 0.002152279175940
102 -0.002079880430899
103 0.0
104 0.0
105 0.002062422373560
 Sym=      2.3
 Ene=       0.0000
 Spin= Alpha
 Occup=    0.027470
1 0.0
2 0.0
3 0.0
4 0.0
5 0.0
6 0.0
7 -1.28068742771649
8 0.0
9 0.0
10 0.033144306009684
11 0.0
12 0.0
13 0.18829969618199
14 0.0
15 0.0
16 -0.042490654377403
17 0.0
18 0.0
19 0.0
20 0.0
21 0.0
22 0.0
23 0.023823426670227
24 0.0
25 0.0
26 0.0
27 0.0
28 0.0
29 0.015623109228382
30 0.0
31 0.0
32 0.0
33 0.0
34 0.0
35 -0.050144815275485
36 0.0
37 -0.001750261167996
38 0.0
39 0.0
40 0.008082483762752
41 0.0
42 0.0
43 -0.005734261992741
44 0.0
45 0.0
46 0.0
47 -0.011939194996850
48 0.0
49 0.0
50 0.003740418932572
51 0.0
52 0.0
53 0.012277692033177
54 0.0
55 0.0
56 0.94552786050543
57 0.24961088811541
58 -0.006904970796455
59 0.025659201534028
60 0.0
61 -0.011644410073581
62 -0.003170255987137
63 0.0
64 -0.13241270905491
65 -0.11353015171328
66 0.0
67 -0.070242999933934
68 -0.059777266810331
69 -0.006138189058258
70 0.005283296385609
71 0.000854892672649
72 0.0
73 0.0
74 0.009466259126698
75 -0.013462001338614
76 0.009940711173027
77 0.003521290165586
78 0.0
79 0.0
80 0.034027009295271
81 -0.94552786050543
82 -0.24961088811541
83 0.006904970796455
84 -0.025659201534028
85 0.0
86 -0.011644410073581
87 0.003170255987137
88 0.0
89 -0.13241270905491
90 0.11353015171328
91 0.0
92 -0.070242999933934
93 0.059777266810331
94 0.006138189058258
95 -0.005283296385609
96 -0.000854892672649
97 0.0
98 0.0
99 0.009466259126698
100 0.013462001338614
101 -0.009940711173027
102 -0.003521290165586
103 0.0
104 0.0
105 0.034027009295271
 Sym=      4.1
 Ene=       0.0000
 Spin= Alpha
 Occup=    0.025984
1 -0.043382503129081
2 -0.59343946170517
3 -0.044209785083239
4 -0.60894729379736
5 -0.32415912264222
6 0.0
7 0.0
8 -1.24723371465150
9 0.0
10 0.0
11 0.12385187515899
12 0.0
13 0.0
14 0.35924102704556
15 0.0
16 0.0
17 -0.001672231550142
18 -0.023430352734695
19 0.013620498208268
20 0.009809854526427
21 0.0
22 0.0
23 0.0
24 -0.026891459763732
25 0.020295462249491
26 0.006595997514241
27 0.0
28 0.0
29 0.0
30 0.030775931720743
31 -0.022171692902970
32 -0.008604238817773
33 0.0
34 0.0
35 0.0
36 0.0
37 0.0
38 0.004058691706688
39 0.0
40 0.0
41 0.003072308155861
42 0.0
43 0.0
44 -0.008517614489383
45 0.0
46 0.0
47 0.0
48 -0.002781873233379
49 0.0
50 0.0
51 0.004861625418540
52 0.0
53 0.0
54 -0.001129350825766
55 0.0
56 0.86446057949253
57 0.22698405112232
58 -0.072494095563610
59 0.013214830179647
60 0.0
61 -0.005357856812244
62 0.005884833041104
63 0.0
64 -0.15439345140204
65 -0.036344651484135
66 0.0
67 -0.051749678087070
68 -0.006996434762703
69 -0.002810450428527
70 0.008137531926148
71 -0.005327081497621
72 0.0
73 0.0
74 -0.002841764934889
75 -0.014299154640989
76 0.019638799136914
77 -0.005339644495925
78 0.0
79 0.0
80 0.010079576211681
81 0.86446057949253
82 0.22698405112232
83 -0.072494095563610
84 0.013214830179647
85 0.0
86 0.005357856812244
87 0.005884833041104
88 0.0
89 0.15439345140204
90 -0.036344651484135
91 0.0
92 0.051749678087070
93 -0.006996434762703
94 -0.002810450428527
95 0.008137531926148
96 -0.005327081497621
97 0.0
98 0.0
99 0.002841764934889
100 -0.014299154640989
101 0.019638799136914
102 -0.005339644495925
103 0.0
104 0.0
105 -0.010079576211681
 Sym=      2.2
 Ene=       0.0000
 Spin= Alpha
 Occup=    0.017741
1 0.0
2 0.0
3 0.0
4 0.0
5 0.0
6 1.59017414542536
7 0.0
8 0.0
9 -0.46023414794261
10 0.0
11 0.0
12 -1.07121053445327
13 0.0
14 0.0
15 -0.079534486202766
16 0.0
17 0.0
18 0.0
19 0.0
20 0.0
21 0.0
22 -0.021376557951041
23 0.0
24 0.0
25 0.0
26 0.0
27 0.0
28 -0.029589435966822
29 0.0
30 0.0
31 0.0
32 0.0
33 0.0
34 -0.013831380076464
35 0.0
36 -0.001143330454634
37 0.0
38 0.0
39 0.002206863795692
40 0.0
41 0.0
42 -0.000672925025308
43 0.0
44 0.0
45 0.0
46 -0.016914056512099
47 0.0
48 0.0
49 0.021012668169093
50 0.0
51 0.0
52 0.001679919912703
53 0.0
54 0.0
55 0.0
56 0.0
57 0.0
58 0.0
59 0.0
60 -0.025389681021880
61 0.0
62 0.0
63 -0.13827200761966
64 0.0
65 0.0
66 -0.073465247788367
67 0.0
68 0.0
69 0.0
70 0.0
71 0.0
72 0.019042614056425
73 0.012539649238397
74 0.0
75 0.0
76 0.0
77 0.0
78 0.036395634124773
79 0.023670803945073
80 0.0
81 0.0
82 0.0
83 0.0
84 0.0
85 -0.025389681021880
86 0.0
87 0.0
88 -0.13827200761966
89 0.0
90 0.0
91 -0.073465247788367
92 0.0
93 0.0
94 0.0
95 0.0
96 0.0
97 -0.019042614056425
98 0.012539649238397
99 0.0
100 0.0
101 0.0
102 0.0
103 -0.036395634124773
104 0.023670803945073
105 0.0
 Sym=      5.1
 Ene=       0.0000
 Spin= Alpha
 Occup=    0.010632
1 -0.061648619577799
2 -1.24655888982894
3 -0.36771698512775
4 1.86687571402668
5 0.50012834412942
6 0.0
7 0.0
8 0.79156579711466
9 0.0
10 0.0
11 -0.32965184087080
12 0.0
13 0.0
14 -0.37312061462793
15 0.0
16 0.0
17 0.017352552457796
18 -0.043080924967229
19 0.073827966350183
20 -0.030747041382954
21 0.0
22 0.0
23 0.0
24 -0.099972850592791
25 0.17496654934050
26 -0.074993698747713
27 0.0
28 0.0
29 0.0
30 -0.076191854039427
31 0.087814756715485
32 -0.011622902676058
33 0.0
34 0.0
35 0.0
36 0.0
37 0.0
38 0.001444426457985
39 0.0
40 0.0
41 0.005346647142802
42 0.0
43 0.0
44 -0.007284548591934
45 0.0
46 0.0
47 0.0
48 -0.028072879899412
49 0.0
50 0.0
51 -0.031858675242239
52 0.0
53 0.0
54 0.069522395909802
55 0.0
56 0.52403860849484
57 -0.48916762114619
58 -0.51748746334556
59 -0.016714923278206
60 0.0
61 -0.007639452511760
62 -0.036367522690611
63 0.0
64 0.076636676795451
65 -0.039603582992136
66 0.0
67 0.037211780100756
68 -0.007205323439032
69 -0.006388478757390
70 -0.005445855898720
71 0.011834334656110
72 0.0
73 0.0
74 0.017026505513464
75 -0.004730710864701
76 -0.004203973356685
77 0.008934684221386
78 0.0
79 0.0
80 0.023784549397400
81 0.52403860849484
82 -0.48916762114619
83 -0.51748746334556
84 -0.016714923278206
85 0.0
86 0.007639452511760
87 -0.036367522690611
88 0.0
89 -0.076636676795451
90 -0.039603582992136
91 0.0
92 -0.037211780100756
93 -0.007205323439032
94 -0.006388478757390
95 -0.005445855898720
96 0.011834334656110
97 0.0
98 0.0
99 -0.017026505513464
100 -0.004730710864701
101 -0.004203973356685
102 0.008934684221386
103 0.0
104 0.0
105 -0.023784549397400
 Sym=      6.1
 Ene=       0.0000
 Spin= Alpha
 Occup=    0.006449
1 -0.005167701602064
2 -0.59600758828549
3 -0.26942624325550
4 0.74223775079034
5 -0.001251587280729
6 0.0
7 0.0
8 0.069623735847006
9 0.0
10 0.0
11 -0.066180917539040
12 0.0
13 0.0
14 0.079936638510647
15 0.0
16 0.0
17 0.011090123327017
18 0.14889164915842
19 -0.22891797095703
20 0.080026321798606
21 0.0
22 0.0
23 0.0
24 0.33858196735783
25 -0.55039168457968
26 0.21180971722185
27 0.0
28 0.0
29 0.0
30 0.037051541854195
31 -0.10678980219203
32 0.069738260337834
33 0.0
34 0.0
35 0.0
36 0.0
37 0.0
38 0.017205014786375
39 0.0
40 0.0
41 0.010808265059379
42 0.0
43 0.0
44 -0.033891214629112
45 0.0
46 0.0
47 0.0
48 0.037859203315731
49 0.0
50 0.0
51 0.003987960307102
52 0.0
53 0.0
54 -0.054781411619878
55 0.0
56 -0.43633069397447
57 0.22096724087861
58 0.23471982334343