[Molden Format]
[Molpro variables]
_NUMVAR=  897.0000000000000    
_AVOGAD= 0.6022136736000000E+24
_BOLTZ= 0.1380658000000000E-22
_CLIGHT=  29979245800.00000    
_EV= 0.3674932379085202E-01
_ENULL= 0.8854187817000000E-11
_KJOULE= 0.3808798324128737E-03
_KJOULE/MOL= 0.3808798324128737E-03
_CM= 0.4556335267302901E-05
_CM-1= 0.4556335267302901E-05
_DEB2SI= 0.3335641000000000E-29
_AMU2AU=  1822.888390000000    
_KCAL= 0.1593601117815568E-02
_KCAL/MOL= 0.1593601117815568E-02
_KELVIN= 0.3166811411060229E-05
_JOULE= 0.4359748200000000E-17
_HERTZ= 0.1519829846004524E-15
_HZ= 0.1519829846004524E-15
_JPCAL=  4.184000000000000    
_PLANCK= 0.6626075540000000E-33
_TOA= 0.5291772109200000    
_TOANG= 0.5291772109200000    
_TORAD= 0.1745329251994330E-01
_TOCM=  219474.6306700000    
_TODEBYE=  2.541580000000000    
_TOE= 0.4803242000000000E-09
_TOEV=  27.21138505000000    
_TOHERTZ=  6579683920729000.    
_TOHZ=  6579683920729000.    
_TOK=  315775.0400000000    
_TOKCAL=  627.5096000000000    
_TOKELVIN=  315775.0400000000    
_TOKJ=  2625.500000000000    
_TOKJOULE=  2625.500000000000    
_TOKG= 0.1660565586000000E-26
_ANG=  1.889726124565062    
_ANGSTROM=  1.889726124565062    
_RPAREF=  0.000000000000000    
_RPADISS=  0.000000000000000    
_IGNORE_UNDEF=  2.000000000000000    
_STRICTCHECK=  0.000000000000000    
_SEW_ONEEL=  0.000000000000000    
_CPPDONE=FALSE
_DKROLL_DONE=  0.000000000000000    
_FOCKDONE=TRUE
_GRADONE=FALSE
_HESSDONE=FALSE
_INTDONE=TRUE
_SCFDONE=TRUE
_MODUL_BLOCK=FALSE
_MODUL_CUDA=FALSE
_MODUL_SLATER=FALSE
_MODUL_MRCC=FALSE
_MODUL_NBO6=FALSE
_MODUL_NECI=TRUE
_MODUL_AIMS=TRUE
_MRCC_EXEC=
_FITC_AO_SAVED=FALSE
_FITC_MO_SAVED=FALSE
_SHARED_FS=TRUE
_LSTYP=SEWARD
_INTYP=INTS
_GEOMTYP=ZMAT
_GRADTYP=ALASKA
_DIRECT=FALSE
_DKHO= -1.000000000000000    
_SYNCM=  0.000000000000000    
_BASIS=AUG-CC-PVTZ
_ZORIENT=  0.000000000000000    
_NELEC=  8.000000000000000    
!SPIN=  0.000000000000000    
_QSDSTEP=  0.000000000000000    
_QSDIRC=  0.000000000000000    
_PROGRAM=RHF-SCF
_CPUSTEP= 0.8000000000000007E-01
_SYSSTEP= 0.2000000000000002E-01
_WALLSTEP= 0.1400000000000000    
!DFSCF=  0.000000000000000    
!SCSGRD=  0.000000000000000    
_BASINP=  610.0000000000000    
_CPUTOT=  1.260000000000000    
_CPUSORT= 0.2000000000000000    
_SYSSORT= 0.3000000000000003E-01
_WALLSORT= 0.2500000000000000    
_DFTEXFAC=  1.000000000000000    
_DMX=  0.000000000000000    
_DMY=  0.000000000000000    
_DMZ=  1.311708726651684    
_DMX_SCF=  0.000000000000000    
_DMY_SCF=  0.000000000000000    
_DMZ_SCF=  1.311708726651684    
_EHOMO= -1.657228909468316    
_ELUMO=-0.9572775915835555    
_EIGS= -21.80556148842992    
_ENERGY= -74.61480228989576    
_ENERGY_METHOD=RHF
_ENERGY_BASIS=aug-cc-pVTZ
_GEOMETRY_METHOD=
_GEOMETRY_BASIS=
_ENUC=  9.348802247698661    
_GRADEXFAC=  9999.000000000000    
_GRADMETHOD=  1.000000000000000    
_NMRMETHOD=  0.000000000000000    
_NMRMAGNET=  0.000000000000000    
!GRID_FREEZE= -1.000000000000000    
_ITERATIONS=  8.000000000000000    
_LASTNELEC=  8.000000000000000    
_LASTSPIN=  0.000000000000000    
_LASTSYM=  1.000000000000000    
_MPP_PROG=  1.000000000000000    
_MSNSTATES=  0.000000000000000    
_RS2PHASE=  0.000000000000000    
_NPROC_MPP=  23.00000000000000    
_NPROC_MPPX=  23.00000000000000    
_NPROC_SMP=  1.000000000000000    
_NUMSTEP=  0.000000000000000    
_ORBITAL=  2100.200000000000    
_PI=  3.141592653589793    
_SEIG_MIN= 0.3697027323475132E-03
_SEWPROP=TRUE
_STATUS=  1.000000000000000    
_SYSTOT= 0.1899999999999999    
_VERSION=  2015001.000000000    
_WALLTOT=  2.310000000000000    
_DATE=14-Apr-20
_LASTORB=RHF
_MACHINE= 64 bit mpp version
_OUTPUT=/global/cscratch1/sd/rbello/Quantum_Chem/molpro.xml
_PGROUP=C2v
_TIME=20:52:48
_LIBMOL=/global/common/cori/software/molpro/2015/molprop_2015_1_linux_x86_64_i8/lib/
_VIGRDC=  0.000000000000000    
!VIBCNT=  0.000000000000000    
!RGHFCNT=  0.000000000000000    
!SURFREC=  0.000000000000000    
!ROTREC=  0.000000000000000    
!POLYREC=  0.000000000000000    
!DIPREC=  0.000000000000000    
!DIP4DREC=  0.000000000000000    
!DIPROT=  0.000000000000000    
!DIP4DROT=  0.000000000000000    
!PTREC=  0.000000000000000    
!PT4DREC=  0.000000000000000    
!VSCFREC=  0.000000000000000    
!VCIREC=  0.000000000000000    
!PVCIREC=  0.000000000000000    
!VMP2REC=  0.000000000000000    
!VMCSCFREC=  0.000000000000000    
!VMRCIREC=  0.000000000000000    
!VIBSTATEREC=  0.000000000000000    
!VIBSTATECNT=  0.000000000000000    
!VIBINFO=  0.000000000000000    
!GAREC=  0.000000000000000    
!SCFORB=  21002.00000000000    
!NEWMOL= -1.000000000000000    
!NEWSYM= -1.000000000000000    
_SLFILES=slscratch
_NGSSTO=  9.000000000000000    
_SIN=SIN
_COS=COS
_TAN=TAN
_ACOS=ACOS
_ASIN=ASIN
_ATAN=ATAN
_COSH=COSH
_SINH=SINH
_TANH=TANH
_ABS=ABS
_MOD=MOD
_ERF=ERF
_REFC=REFC
_ERFC=ERFC
_HYPOT=HYPOT
_J0=J0
_J1=J1
_JN=JN
_GAMMA=GAMMA
_LGAMMA=LGAMMA
_Y0=Y0
_Y1=Y1
_YN=YN
_EXP=EXP
_LOG=LOG
_LOG10=LOG10
_SQRT=SQRT
_INT=INT
_NINT=NINT
_MAX=MAX
_MIN=MIN
_COSMO=  0.000000000000000    
_COSMOIT=  0.000000000000000    
_COSMOES=  0.000000000000000    
_COSMOEDS=  0.000000000000000    
_COSMOEC=  0.000000000000000    
_COSMOEDCORR=  0.000000000000000    
_FEPSI=  1.000000000000000    
_SL_IsMM=  0.000000000000000    
_SL_NSYM=  4.000000000000000    
_SL_System_BitSw=  0.000000000000000    
_SL_Unique_atoms=  0.000000000000000    
_SL_GRAD=  0.000000000000000    
_SL_MAXUPD_Hess=  5.000000000000000    
_SL_N_PRINT_COD=  5.000000000000000    
_SL_PRINT_CODES=  0.000000000000000    
_SL_BasType=  0.000000000000000    
_SL_Energy_Pred=  0.000000000000000    
_SL_New_Coords=  0.000000000000000    
_SL_Total_Nuclea=  0.000000000000000    
_SL_Highest_Mltp=  0.000000000000000    
_SL_Ref_Geom=  0.000000000000000    
_SL_Symmetry_ope=  1.000000000000000    
_SL_agrad=  0.000000000000000    
_SL_GrdMax=  0.000000000000000    
_SL_GrdNorm=  0.000000000000000    
_SL_GrdRMS=  0.000000000000000    
_SL_Hss_Q=  0.000000000000000    
_SL_Hss_X=  0.000000000000000    
_SL_BMxOld=  0.000000000000000    
_SL_KtB=  0.000000000000000    
_SL_TROld=  0.000000000000000    
_SL_No_of_Intern=  0.000000000000000    
_SL_Hess=  0.000000000000000    
_SL_K=  0.000000000000000    
!LATTICE= -1.000000000000000    
!NEWLATTICE=  0.000000000000000    
!LATGRAD_VAR=FALSE
!SEW_LATTICE=  1.000000000000000    
!LOCAL=  0.000000000000000    
!SAVEDOM= -1.000000000000000    
!RESTDOM= -1.000000000000000    
!SAVEDOM_HF= -1.000000000000000    
!RESTDOM_HF= -1.000000000000000    
!HESSREC=  0.000000000000000    
!FREQREC=  0.000000000000000    
!NMODREC=  0.000000000000000    
!GTASKS=  0.000000000000000    
!HTASKS=  0.000000000000000    
!SAVEDOM_EOM= -1.000000000000000    
!RESTDOM_EOM= -1.000000000000000    
!GRADSTATE= -1.000000000000000    
!THRCHG= 0.1000000000000000    
!DEBUG= -1.000000000000000    
!CFIT_CPHF=  0.000000000000000    
!RDOMAUX_CPHF=  3.000000000000000    
!THRAO_CPHF= 0.1000000000000000E-09
!THRMO_CPHF= 0.1000000000000000E-08
!THROV_CPHF= 0.1000000000000000E-11
!THRSW_CPHF= 0.1000000000000000E-09
!THRPROD_CPHF= 0.1000000000000000E-08
!THRAOPR_CPHF= 0.1000000000000000E-11
!CFIT_SCFGRD=  0.000000000000000    
!RDOMAUX_SCFGRD=  5.000000000000000    
!THRAO_SCFGRD= 0.1000000000000000E-09
!THRMO_SCFGRD= 0.1000000000000000E-08
!THROV_SCFGRD= 0.1000000000000000E-11
!THRSW_SCFGRD= 0.1000000000000000E-09
!THRPROD_SCFGRD= 0.1000000000000000E-08
!THRAOPR_SCFGRD= 0.1000000000000000E-11
!LOCFIT_SCF=  0.000000000000000    
!LOCFIT_MP2= -1.000000000000000    
_RIDOM=  0.000000000000000    
!CC2_METHOD=  0.000000000000000    
_BASIS2006=FALSE
_SVDDEL= -1.000000000000000    
_SVDDELA= -1.000000000000000    
_SVDDELP= -1.000000000000000    
_SVDDELF= -1.000000000000000    
_SVDDELS= -1.000000000000000    
_SVDDEL_ABS= -1.000000000000000    
_SVDDELA_ABS= -1.000000000000000    
_SVDDELP_ABS= -1.000000000000000    
_SVDDELF_ABS= -1.000000000000000    
_SVDDELS_ABS= -1.000000000000000    
_MAXBASIS=  0.000000000000000    
!OPT_CONICAL=  0.000000000000000    
!CLEARSP_JGRID=  0.000000000000000    
_GRDHYBR=  0.000000000000000    
_STATEGRAD=  1.000000000000000    
_4EXT_NDISKS=  1.000000000000000    
!ZMP=  0.000000000000000    
_MAXIT_ZMP=  500.0000000000000    
_MAXDIS_ZMP=  100.0000000000000    
_ACCU_ZMP=  14.00000000000000    
_SHIFTA_ZMP= -100.0000000000000    
!EMBEDFLAG=  1.000000000000000    
!EMBED=FALSE
!EMBED_F12=FALSE
!EMBEDNUC=  0.000000000000000    
_EMBEDENERGY=  0.000000000000000    
_KSPACETIME=  0.000000000000000    
_RSPACETIME=  0.000000000000000    
!EMBED_DFC=FALSE
!NUM_VOIDS=  0.000000000000000    
_IBODY=  0.000000000000000    
_EMBE_TOTAL=  0.000000000000000    
_EMBE_HF=  0.000000000000000    
_EMBE_CORR=  0.000000000000000    
!EMBED_PROJ=FALSE
!EMBED_TRUNC=  0.000000000000000    
!EMB_PROJ_ZMU=  1000000.000000000    
!CORRECTION=  0.000000000000000    
!CORRECTION_HF=  0.000000000000000    
!EMBED_ENERGY=  0.000000000000000    
!EMBED_NAXC=FALSE
!EMBED_AORB=  0.000000000000000    
!EMBED_NACORR=  0.000000000000000    
!EMBED_MP2=FALSE
!EMBED_TRUNC_PERTURBATION=FALSE
!EMBED_FROZEN=  0.000000000000000    
_CHANGE_BASIS=FALSE
_RESTORE_BASIS=FALSE
_FIX_EMBED_GUESS=FALSE
!EDFT=  0.000000000000000    
_IFASTLATGRAD=  0.000000000000000    
_SINDEX=  0.000000000000000    
_AVDOM_OSV=  0.000000000000000    
_AVDOM_PNO=  0.000000000000000    
_AVDOM_PAO=  0.000000000000000    
_AVDOM_LMO=  0.000000000000000    
_CC2OSV_FLAG=  0.000000000000000    
_TMADC2_FLAG=FALSE
_PROPADC2_FLAG=FALSE
_LEN_VirQ=  0.000000000000000    
_GRDCC2LR_FLAG=FALSE
_GRDADC2_FLAG=FALSE
R=  0.000000000000000    
AHOH=  104.4776000000000    
GX1=  0.000000000000000    
GY1=  0.000000000000000    
GZ1=  0.000000000000000    
GX2=  0.000000000000000    
GY2= 0.7530886081000000    
GZ2= 0.5642560353000000    
GX3=  0.000000000000000    
GY3=-0.7530886081000000    
GZ3= 0.5642560353000000    
ACCU=  13.00000000000000    
NITORT=  1.000000000000000    
[Atoms] Angs
O     1    8         0.0000000000        0.0000000000        0.0000000000
H     2    1         0.0000000000        0.7530886081        0.5642560353
H     3    1         0.0000000000       -0.7530886081        0.5642560353
[GTO]
   1 0
 s   10  1.00
  0.1533000000D+05  0.5079996682D-03
  0.2299000000D+04  0.3928997434D-02
  0.5224000000D+03  0.2024298678D-01
  0.1473000000D+03  0.7918094828D-01
  0.4755000000D+02  0.2306868493D+00
  0.1676000000D+02  0.4331177171D+00
  0.6207000000D+01  0.3502597712D+00
  0.1752000000D+01  0.4272797209D-01
  0.6882000000D+00 -0.8153994674D-02
  0.2384000000D+00  0.2380998445D-02
 s   10  1.00
  0.1533000000D+05 -0.1150000604D-03
  0.2299000000D+04 -0.8950004697D-03
  0.5224000000D+03 -0.4636002433D-02
  0.1473000000D+03 -0.1872400983D-01
  0.4755000000D+02 -0.5846303068D-01
  0.1676000000D+02 -0.1364630716D+00
  0.6207000000D+01 -0.1757400922D+00
  0.1752000000D+01  0.1609340845D+00
  0.6882000000D+00  0.6034183167D+00
  0.2384000000D+00  0.3787651988D+00
 s   10  1.00
  0.1533000000D+05  0.0000000000D+00
  0.2299000000D+04  0.0000000000D+00
  0.5224000000D+03  0.0000000000D+00
  0.1473000000D+03  0.0000000000D+00
  0.4755000000D+02  0.0000000000D+00
  0.1676000000D+02  0.0000000000D+00
  0.6207000000D+01  0.0000000000D+00
  0.1752000000D+01  0.1000000000D+01
  0.6882000000D+00  0.0000000000D+00
  0.2384000000D+00  0.0000000000D+00
 s   10  1.00
  0.1533000000D+05  0.0000000000D+00
  0.2299000000D+04  0.0000000000D+00
  0.5224000000D+03  0.0000000000D+00
  0.1473000000D+03  0.0000000000D+00
  0.4755000000D+02  0.0000000000D+00
  0.1676000000D+02  0.0000000000D+00
  0.6207000000D+01  0.0000000000D+00
  0.1752000000D+01  0.0000000000D+00
  0.6882000000D+00  0.0000000000D+00
  0.2384000000D+00  0.1000000000D+01
 s    1  1.00
  0.7376000000D-01  0.1000000000D+01
 p    5  1.00
  0.3446000000D+02  0.1592799074D-01
  0.7749000000D+01  0.9973994203D-01
  0.2280000000D+01  0.3104918195D+00
  0.7156000000D+00  0.4910257146D+00
  0.2140000000D+00  0.3363368045D+00
 p    5  1.00
  0.3446000000D+02  0.0000000000D+00
  0.7749000000D+01  0.0000000000D+00
  0.2280000000D+01  0.0000000000D+00
  0.7156000000D+00  0.1000000000D+01
  0.2140000000D+00  0.0000000000D+00
 p    5  1.00
  0.3446000000D+02  0.0000000000D+00
  0.7749000000D+01  0.0000000000D+00
  0.2280000000D+01  0.0000000000D+00
  0.7156000000D+00  0.0000000000D+00
  0.2140000000D+00  0.1000000000D+01
 p    1  1.00
  0.5974000000D-01  0.1000000000D+01
 d    1  1.00
  0.2314000000D+01  0.1000000000D+01
 d    1  1.00
  0.6450000000D+00  0.1000000000D+01
 d    1  1.00
  0.2140000000D+00  0.1000000000D+01
 f    1  1.00
  0.1428000000D+01  0.1000000000D+01
 f    1  1.00
  0.5000000000D+00  0.1000000000D+01
  
   2 0
 s    5  1.00
  0.3387000000D+02  0.6067999217D-02
  0.5095000000D+01  0.4530799416D-01
  0.1159000000D+01  0.2028219738D+00
  0.3258000000D+00  0.5039029350D+00
  0.1027000000D+00  0.3834209505D+00
 s    5  1.00
  0.3387000000D+02  0.0000000000D+00
  0.5095000000D+01  0.0000000000D+00
  0.1159000000D+01  0.0000000000D+00
  0.3258000000D+00  0.1000000000D+01
  0.1027000000D+00  0.0000000000D+00
 s    5  1.00
  0.3387000000D+02  0.0000000000D+00
  0.5095000000D+01  0.0000000000D+00
  0.1159000000D+01  0.0000000000D+00
  0.3258000000D+00  0.0000000000D+00
  0.1027000000D+00  0.1000000000D+01
 s    1  1.00
  0.2526000000D-01  0.1000000000D+01
 p    1  1.00
  0.1407000000D+01  0.1000000000D+01
 p    1  1.00
  0.3880000000D+00  0.1000000000D+01
 p    1  1.00
  0.1020000000D+00  0.1000000000D+01
 d    1  1.00
  0.1057000000D+01  0.1000000000D+01
 d    1  1.00
  0.2470000000D+00  0.1000000000D+01
  
   3 0
 s    5  1.00
  0.3387000000D+02  0.6067999217D-02
  0.5095000000D+01  0.4530799416D-01
  0.1159000000D+01  0.2028219738D+00
  0.3258000000D+00  0.5039029350D+00
  0.1027000000D+00  0.3834209505D+00
 s    5  1.00
  0.3387000000D+02  0.0000000000D+00
  0.5095000000D+01  0.0000000000D+00
  0.1159000000D+01  0.0000000000D+00
  0.3258000000D+00  0.1000000000D+01
  0.1027000000D+00  0.0000000000D+00
 s    5  1.00
  0.3387000000D+02  0.0000000000D+00
  0.5095000000D+01  0.0000000000D+00
  0.1159000000D+01  0.0000000000D+00
  0.3258000000D+00  0.0000000000D+00
  0.1027000000D+00  0.1000000000D+01
 s    1  1.00
  0.2526000000D-01  0.1000000000D+01
 p    1  1.00
  0.1407000000D+01  0.1000000000D+01
 p    1  1.00
  0.3880000000D+00  0.1000000000D+01
 p    1  1.00
  0.1020000000D+00  0.1000000000D+01
 d    1  1.00
  0.1057000000D+01  0.1000000000D+01
 d    1  1.00
  0.2470000000D+00  0.1000000000D+01
 
 
[MO]
 Sym=      1.1
 Ene=     -21.8056
 Spin= Alpha
 Occup=    2.000000
1 0.99899261428850
2 -0.003430793207529
3 0.000839171280616
4 -0.000427095188671
5 0.000346210760503
6 0.0
7 0.0
8 0.005401147605299
9 0.0
10 0.0
11 -0.004433618291945
12 0.0
13 0.0
14 -0.001495897186257
15 0.0
16 0.0
17 0.000133926494010
18 -0.000564011625348
19 0.000287056898834
20 0.000276954726514
21 0.0
22 0.0
23 0.0
24 0.000050235384655
25 -0.000162079402661
26 0.000111844018006
27 0.0
28 0.0
29 0.0
30 -0.000111715576843
31 0.000125058146477
32 -0.000013342569634
33 0.0
34 0.0
35 0.0
36 0.0
37 0.0
38 0.000004577085537
39 0.0
40 0.0
41 -0.000008473947527
42 0.0
43 0.0
44 0.000002333142887
45 0.0
46 0.0
47 0.0
48 0.000048976254618
49 0.0
50 0.0
51 0.000055057796681
52 0.0
53 0.0
54 -0.000120766337446
55 0.0
56 0.002075355708472
57 -0.000031679358908
58 -0.001037194796787
59 0.000016628452086
60 0.0
61 -0.000192532677252
62 -0.000106207505291
63 0.0
64 -0.000799640990105
65 -0.000600540052892
66 0.0
67 -0.000123132425380
68 -0.000059500773570
69 0.000038060352635
70 0.000015618883231
71 -0.000053679235867
72 0.0
73 0.0
74 -0.000084701831806
75 -0.000248018353504
76 0.000225461587853
77 0.000022556765651
78 0.0
79 0.0
80 0.000412694724177
81 0.002075355708472
82 -0.000031679358908
83 -0.001037194796787
84 0.000016628452086
85 0.0
86 0.000192532677252
87 -0.000106207505291
88 0.0
89 0.000799640990105
90 -0.000600540052892
91 0.0
92 0.000123132425380
93 -0.000059500773570
94 0.000038060352635
95 0.000015618883231
96 -0.000053679235867
97 0.0
98 0.0
99 0.000084701831806
100 -0.000248018353504
101 0.000225461587853
102 0.000022556765651
103 0.0
104 0.0
105 -0.000412694724177
 Sym=      2.1
 Ene=      -2.4044
 Spin= Alpha
 Occup=    2.000000
1 0.003082732527041
2 0.97875518989445
3 0.006280572234433
4 -0.14051285390388
5 0.046091722074924
6 0.0
7 0.0
8 0.16990702379298
9 0.0
10 0.0
11 0.003762390734946
12 0.0
13 0.0
14 -0.026623168211376
15 0.0
16 0.0
17 0.006810502810472
18 -0.005800194772404
19 0.003711042199256
20 0.002089152573149
21 0.0
22 0.0
23 0.0
24 -0.014247943202209
25 0.007210828795503
26 0.007037114406706
27 0.0
28 0.0
29 0.0
30 -0.006601147578250
31 0.003447392001356
32 0.003153755576894
33 0.0
34 0.0
35 0.0
36 0.0
37 0.0
38 -0.001321428826676
39 0.0
40 0.0
41 -0.000614266971594
42 0.0
43 0.0
44 0.002387149781919
45 0.0
46 0.0
47 0.0
48 -0.000209548549395
49 0.0
50 0.0
51 -0.002677722844478
52 0.0
53 0.0
54 0.002958861725098
55 0.0
56 0.35058892917066
57 -0.12674124264588
58 -0.17115035714229
59 -0.001327571894743
60 0.0
61 -0.013801537367100
62 -0.008944056547602
63 0.0
64 -0.013776389427265
65 -0.010609982357495
66 0.0
67 0.006688146455314
68 0.005098099427557
69 -0.002439334962694
70 0.002445596919431
71 -0.000006261956737
72 0.0
73 0.0
74 0.004379477455504
75 -0.001347164071866
76 0.001037123891355
77 0.000310040180511
78 0.0
79 0.0
80 0.002725327744576
81 0.35058892917066
82 -0.12674124264588
83 -0.17115035714229
84 -0.001327571894743
85 0.0
86 0.013801537367100
87 -0.008944056547602
88 0.0
89 0.013776389427265
90 -0.010609982357495
91 0.0
92 -0.006688146455314
93 0.005098099427557
94 -0.002439334962694
95 0.002445596919431
96 -0.000006261956737
97 0.0
98 0.0
99 -0.004379477455504
100 -0.001347164071866
101 0.001037123891355
102 0.000310040180511
103 0.0
104 0.0
105 -0.002725327744576
 Sym=      1.3
 Ene=      -1.7873
 Spin= Alpha
 Occup=    2.000000
1 0.0
2 0.0
3 0.0
4 0.0
5 0.0
6 0.0
7 0.93493712898243
8 0.0
9 0.0
10 -0.032612798480462
11 0.0
12 0.0
13 -0.21152732915282
14 0.0
15 0.0
16 0.012147976020923
17 0.0
18 0.0
19 0.0
20 0.0
21 0.0
22 0.0
23 0.014193332432626
24 0.0
25 0.0
26 0.0
27 0.0
28 0.0
29 0.031554017046170
30 0.0
31 0.0
32 0.0
33 0.0
34 0.0
35 -0.004300270908627
36 0.0
37 -0.000380343007377
38 0.0
39 0.0
40 0.002577472966138
41 0.0
42 0.0
43 -0.002067189274581
44 0.0
45 0.0
46 0.0
47 -0.002357975280531
48 0.0
49 0.0
50 -0.000891080708406
51 0.0
52 0.0
53 0.004054636518326
54 0.0
55 0.0
56 0.52262123508627
57 -0.095790705555420
58 -0.27217849573951
59 -0.006517514121752
60 0.0
61 -0.013568397464134
62 -0.015544946667009
63 0.0
64 -0.025704562511036
65 -0.032067532553236
66 0.0
67 0.021440605809533
68 0.010019229583313
69 -0.004510653142704
70 0.002364256623949
71 0.002146396518755
72 0.0
73 0.0
74 0.008311196940028
75 0.001457641173091
76 -0.003443726890423
77 0.001986085717332
78 0.0
79 0.0
80 0.002096403772684
81 -0.52262123508627
82 0.095790705555420
83 0.27217849573951
84 0.006517514121752
85 0.0
86 -0.013568397464134
87 0.015544946667009
88 0.0
89 -0.025704562511036
90 0.032067532553236
91 0.0
92 0.021440605809533
93 -0.010019229583313
94 0.004510653142704
95 -0.002364256623949
96 -0.002146396518755
97 0.0
98 0.0
99 0.008311196940028
100 -0.001457641173091
101 0.003443726890423
102 -0.001986085717332
103 0.0
104 0.0
105 0.002096403772684
 Sym=      3.1
 Ene=      -1.6572
 Spin= Alpha
 Occup=    2.000000
1 -0.009930255933399
2 -0.34008927237902
3 -0.006956156588295
4 -0.14003985841568
5 0.029401507707454
6 0.0
7 0.0
8 1.01058006511927
9 0.0
10 0.0
11 -0.024538586148363
12 0.0
13 0.0
14 -0.23956144792058
15 0.0
16 0.0
17 0.001239684526908
18 -0.007020039656691
19 -0.001438735067546
20 0.008458774724237
21 0.0
22 0.0
23 0.0
24 -0.010167583771816
25 -0.013073741326554
26 0.023241325098370
27 0.0
28 0.0
29 0.0
30 0.015265272423470
31 -0.014815641015402
32 -0.000449631408068
33 0.0
34 0.0
35 0.0
36 0.0
37 0.0
38 -0.003033829188273
39 0.0
40 0.0
41 0.003012497393469
42 0.0
43 0.0
44 0.001057811584792
45 0.0
46 0.0
47 0.0
48 0.000449498998101
49 0.0
50 0.0
51 0.004152047281805
52 0.0
53 0.0
54 -0.004755113471148
55 0.0
56 0.28842185641651
57 0.008985460785259
58 -0.12450347704105
59 -0.001983555975902
60 0.0
61 -0.011778479654291
62 -0.000020670872306
63 0.0
64 -0.037590228762384
65 -0.004287558568628
66 0.0
67 0.003332834008312
68 0.002532618288748
69 -0.001624182992861
70 0.004445598783500
71 -0.002821415790639
72 0.0
73 0.0
74 0.002341305890982
75 0.001370918976858
76 0.002024625768085
77 -0.003395544744943
78 0.0
79 0.0
80 -0.005679395398021
81 0.28842185641651
82 0.008985460785259
83 -0.12450347704105
84 -0.001983555975902
85 0.0
86 0.011778479654291
87 -0.000020670872306
88 0.0
89 0.037590228762384
90 -0.004287558568628
91 0.0
92 -0.003332834008312
93 0.002532618288748
94 -0.001624182992861
95 0.004445598783500
96 -0.002821415790639
97 0.0
98 0.0
99 -0.002341305890982
100 0.001370918976858
101 0.002024625768085
102 -0.003395544744943
103 0.0
104 0.0
105 0.005679395398021
 Sym=      1.2
 Ene=      -0.9573
 Spin= Alpha
 Occup=    0.000000
1 0.0
2 0.0
3 0.0
4 0.0
5 0.0
6 0.91942106981801
7 0.0
8 0.0
9 0.035280930622001
10 0.0
11 0.0
12 -0.019356871720651
13 0.0
14 0.0
15 0.004735159330479
16 0.0
17 0.0
18 0.0
19 0.0
20 0.0
21 0.0
22 0.006915913122987
23 0.0
24 0.0
25 0.0
26 0.0
27 0.0
28 0.018468828819416
29 0.0
30 0.0
31 0.0
32 0.0
33 0.0
34 0.010197171508912
35 0.0
36 0.003278366511273
37 0.0
38 0.0
39 -0.000995105949686
40 0.0
41 0.0
42 -0.003403284274932
43 0.0
44 0.0
45 0.0
46 0.005124200317852
47 0.0
48 0.0
49 -0.004344991820027
50 0.0
51 0.0
52 -0.002529844324599
53 0.0
54 0.0
55 0.0
56 0.0
57 0.0
58 0.0
59 0.0
60 0.011377707812329
61 0.0
62 0.0
63 0.035824529581927
64 0.0
65 0.0
66 0.006831390093730
67 0.0
68 0.0
69 0.0
70 0.0
71 0.0
72 -0.004761869646002
73 -0.003655137911679
74 0.0
75 0.0
76 0.0
77 0.0
78 -0.009531534910032
79 -0.007019821644928
80 0.0
81 0.0
82 0.0
83 0.0
84 0.0
85 0.011377707812329
86 0.0
87 0.0
88 0.035824529581927
89 0.0
90 0.0
91 0.006831390093730
92 0.0
93 0.0
94 0.0
95 0.0
96 0.0
97 0.004761869646002
98 -0.003655137911679
99 0.0
100 0.0
101 0.0
102 0.0
103 0.009531534910032
104 -0.007019821644928
105 0.0
 Sym=      4.1
 Ene=      -0.4835
 Spin= Alpha
 Occup=    0.000000
1 -0.023231571183486
2 -0.44854870595900
3 -0.015175801327711
4 -0.072520141677832
5 0.26391648377918
6 0.0
7 0.0
8 -0.32151928398582
9 0.0
10 0.0
11 0.007241576697114
12 0.0
13 0.0
14 0.059071687997759
15 0.0
16 0.0
17 0.035642910927176
18 -0.004548251800372
19 0.005981953808555
20 -0.001433702008183
21 0.0
22 0.0
23 0.0
24 -0.021068718011090
25 0.025908761685021
26 -0.004840043673932
27 0.0
28 0.0
29 0.0
30 -0.018087635782245
31 0.013681413220778
32 0.004406222561468
33 0.0
34 0.0
35 0.0
36 0.0
37 0.0
38 -0.000657013326914
39 0.0
40 0.0
41 -0.003176325054385
42 0.0
43 0.0
44 0.004057800931047
45 0.0
46 0.0
47 0.0
48 0.001275962465666
49 0.0
50 0.0
51 -0.001039982897752
52 0.0
53 0.0
54 -0.000671900388228
55 0.0
56 0.32571948426105
57 -0.025569403919210
58 0.21207667885392
59 0.047832040217367
60 0.0
61 0.013102779657754
62 0.007780967519116
63 0.0
64 0.069726383501164
65 0.050516695857359
66 0.0
67 0.038573694249556
68 0.061902567373894
69 0.004984608568520
70 -0.005313536287054
71 0.000328927718534
72 0.0
73 0.0
74 -0.007314198580858
75 0.010312646252874
76 -0.010720520372703
77 0.000407874119829
78 0.0
79 0.0
80 -0.018563660409811
81 0.32571948426105
82 -0.025569403919210
83 0.21207667885392
84 0.047832040217367
85 0.0
86 -0.013102779657754
87 0.007780967519116
88 0.0
89 -0.069726383501164
90 0.050516695857359
91 0.0
92 -0.038573694249556
93 0.061902567373894
94 0.004984608568520
95 -0.005313536287054
96 0.000328927718534
97 0.0
98 0.0
99 0.007314198580858
100 0.010312646252874
101 -0.010720520372703
102 0.000407874119829
103 0.0
104 0.0
105 0.018563660409811
 Sym=      2.3
 Ene=      -0.4055
 Spin= Alpha
 Occup=    0.000000
1 0.0
2 0.0
3 0.0
4 0.0
5 0.0
6 0.0
7 -0.55435647897648
8 0.0
9 0.0
10 -0.002799529856438
11 0.0
12 0.0
13 0.012826427353059
14 0.0
15 0.0
16 0.018285966007518
17 0.0
18 0.0
19 0.0
20 0.0
21 0.0
22 0.0
23 0.009597775382259
24 0.0
25 0.0
26 0.0
27 0.0
28 0.0
29 0.044189986661873
30 0.0
31 0.0
32 0.0
33 0.0
34 0.0
35 0.081291829088156
36 0.0
37 -0.000397157016643
38 0.0
39 0.0
40 -0.003584375994974
41 0.0
42 0.0
43 0.004117218047147
44 0.0
45 0.0
46 0.0
47 -0.002374433988766
48 0.0
49 0.0
50 -0.004373859349376
51 0.0
52 0.0
53 0.007559496833557
54 0.0
55 0.0
56 0.43537574390732
57 0.017970663540310
58 0.45861323871237
59 0.18310224489438
60 0.0
61 0.008269585069948
62 0.010295078172763
63 0.0
64 0.047674446453984
65 0.057433853854980
66 0.0
67 0.072390963546032
68 0.12504898050939
69 0.002972476987139
70 -0.000879658062450
71 -0.002092818924689
72 0.0
73 0.0
74 -0.002752681261225
75 0.011932153992002
76 -0.004793194230223
77 -0.007138959761779
78 0.0
79 0.0
80 -0.008776995642951
81 -0.43537574390732
82 -0.017970663540310
83 -0.45861323871237
84 -0.18310224489438
85 0.0
86 0.008269585069948
87 -0.010295078172763
88 0.0
89 0.047674446453984
90 -0.057433853854980
91 0.0
92 0.072390963546032
93 -0.12504898050939
94 -0.002972476987139
95 0.000879658062450
96 0.002092818924689
97 0.0
98 0.0
99 -0.002752681261225
100 -0.011932153992002
101 0.004793194230223
102 0.007138959761779
103 0.0
104 0.0
105 -0.008776995642951
 Sym=      5.1
 Ene=      -0.3020
 Spin= Alpha
 Occup=    0.000000
1 0.007999859013479
2 0.14363099757368
3 0.007756165632719
4 0.21849460936109
5 -0.079647175784991
6 0.0
7 0.0
8 -0.28292061104923
9 0.0
10 0.0
11 -0.007835954235791
12 0.0
13 0.0
14 -0.031061399903744
15 0.0
16 0.0
17 0.60678522720673
18 0.000203757606364
19 -0.003587274052747
20 0.003383516446383
21 0.0
22 0.0
23 0.0
24 0.009113894418619
25 -0.008878331090062
26 -0.000235563328557
27 0.0
28 0.0
29 0.0
30 -0.052406800051090
31 -0.006634918698438
32 0.059041718749529
33 0.0
34 0.0
35 0.0
36 0.0
37 0.0
38 0.001874836131277
39 0.0
40 0.0
41 -0.001099564156333
42 0.0
43 0.0
44 -0.001415792465392
45 0.0
46 0.0
47 0.0
48 0.000513497228580
49 0.0
50 0.0
51 0.002026545246551
52 0.0
53 0.0
54 -0.002715474072169
55 0.0
56 -0.021161327227042
57 0.001987037910076
58 -0.15468563221698
59 -0.10804827782693
60 0.0
61 -0.002920112121061
62 0.003946379712573
63 0.0
64 -0.011924481049248
65 0.046904032642088
66 0.0
67 -0.13807984103687
68 0.25729134986531
69 -0.000367421417990
70 0.000106511298231
71 0.000260910119760
72 0.0
73 0.0
74 0.000490288423466
75 -0.002707548817873
76 0.009042364874515
77 -0.006334816056642
78 0.0
79 0.0
80 -0.010628807159310
81 -0.021161327227042
82 0.001987037910076
83 -0.15468563221698
84 -0.10804827782693
85 0.0
86 0.002920112121061
87 0.003946379712573
88 0.0
89 0.011924481049248
90 0.046904032642088
91 0.0
92 0.13807984103687
93 0.25729134986531
94 -0.000367421417990
95 0.000106511298231
96 0.000260910119760
97 0.0
98 0.0
99 -0.000490288423466
100 -0.002707548817873
101 0.009042364874515
102 -0.006334816056642
103 0.0
104 0.0
105 0.010628807159310
 Sym=      2.2
 Ene=      -0.3009
 Spin= Alpha
 Occup=    0.000000
1 0.0
2 0.0
3 0.0
4 0.0
5 0.0
6 -0.37874001230502
7 0.0
8 0.0
9 -0.028909327562464
10 0.0
11 0.0
12 -0.046866225861399
13 0.0
14 0.0
15 0.71054018694477
16 0.0
17 0.0
18 0.0
19 0.0
20 0.0
21 0.0
22 0.001354219410658
23 0.0
24 0.0
25 0.0
26 0.0
27 0.0
28 -0.006659533602028
29 0.0
30 0.0
31 0.0
32 0.0
33 0.0
34 0.068359007060480
35 0.0
36 -0.001691737581134
37 0.0
38 0.0
39 0.000356543295177
40 0.0
41 0.0
42 0.001913160843727
43 0.0
44 0.0
45 0.0
46 -0.000362796621913
47 0.0
48 0.0
49 0.000094587311020
50 0.0
51 0.0
52 0.000392155434143
53 0.0
54 0.0
55 0.0
56 0.0
57 0.0
58 0.0
59 0.0
60 0.002372925499902
61 0.0
62 0.0
63 0.018133021625576
64 0.0
65 0.0
66 0.21411225536278
67 0.0
68 0.0
69 0.0
70 0.0
71 0.0
72 0.001611349882616
73 0.000939508434266
74 0.0
75 0.0
76 0.0
77 0.0
78 -0.005822984622219
79 0.007098821436724
80 0.0
81 0.0
82 0.0
83 0.0
84 0.0
85 0.002372925499902
86 0.0
87 0.0
88 0.018133021625576
89 0.0
90 0.0
91 0.21411225536278
92 0.0
93 0.0
94 0.0
95 0.0
96 0.0
97 -0.001611349882616
98 0.000939508434266
99 0.0
100 0.0
101 0.0
102 0.0
103 0.005822984622219
104 0.007098821436724
105 0.0
 Sym=      6.1
 Ene=      -0.2646
 Spin= Alpha
 Occup=    0.000000
1 -0.001717368143735
2 -0.097384438807402
3 0.000137427824002
4 -0.20229030081367
5 -2.16674264627351
6 0.0
7 0.0
8 -0.17721273409310
9 0.0
10 0.0
11 -0.008942599547305
12 0.0
13 0.0
14 -0.13842983034354
15 0.0
16 0.0
17 -0.34728101076410
18 -0.009737763299215
19 0.014966095702545
20 -0.005228332403330
21 0.0
22 0.0
23 0.0
24 -0.025038381260555
25 0.042008205277871
26 -0.016969824017316
27 0.0
28 0.0
29 0.0
30 -0.039973776509372
31 -0.003868965191630
32 0.043842741701001
33 0.0
34 0.0
35 0.0
36 0.0
37 0.0
38 -0.001090123632980
39 0.0
40 0.0
41 -0.001536478725312
42 0.0
43 0.0
44 0.002999033053645
45 0.0
46 0.0
47 0.0
48 0.003644369747764
49 0.0
50 0.0
51 -0.003836297084939
52 0.0
53 0.0
54 -0.001053138009748
55 0.0
56 0.38427621842168
57 0.23424387653550
58 1.15985676248466
59 -0.30024099722359
60 0.0
61 0.006637637411225
62 -0.003519039652525
63 0.0
64 0.027096613334616
65 -0.056886081982879
66 0.0
67 0.39693198409982
68 -0.17642870523382
69 -0.000799122631757
70 0.000747709332183
71 0.000051413299573
72 0.0
73 0.0
74 0.003693013125473
75 0.002312251217585
76 -0.039213387396219
77 0.036901136178633
78 0.0
79 0.0
80 -0.017785950746859
81 0.38427621842168
82 0.23424387653550
83 1.15985676248466
84 -0.30024099722359
85 0.0
86 -0.006637637411225
87 -0.003519039652525
88 0.0
89 -0.027096613334616
90 -0.056886081982879
91 0.0
92 -0.39693198409982
93 -0.17642870523382
94 -0.000799122631757
95 0.000747709332183
96 0.000051413299573
97 0.0
98 0.0
99 -0.003693013125473
100 0.002312251217585
101 -0.039213387396219
102 0.036901136178633
103 0.0
104 0.0
105 0.017785950746859
 Sym=      3.3
 Ene=      -0.2597
 Spin= Alpha
 Occup=    0.000000
1 0.0
2 0.0
3 0.0
4 0.0
5 0.0
6 0.0
7 -0.067653449310763
8 0.0
9 0.0