[Molden Format]
[Molpro variables]
_NUMVAR=  888.0000000000000    
_AVOGAD= 0.6022136736000000E+24
_BOLTZ= 0.1380658000000000E-22
_CLIGHT=  29979245800.00000    
_EV= 0.3674932379085202E-01
_ENULL= 0.8854187817000000E-11
_KJOULE= 0.3808798324128737E-03
_KJOULE/MOL= 0.3808798324128737E-03
_CM= 0.4556335267302901E-05
_CM-1= 0.4556335267302901E-05
_DEB2SI= 0.3335641000000000E-29
_AMU2AU=  1822.888390000000    
_KCAL= 0.1593601117815568E-02
_KCAL/MOL= 0.1593601117815568E-02
_KELVIN= 0.3166811411060229E-05
_JOULE= 0.4359748200000000E-17
_HERTZ= 0.1519829846004524E-15
_HZ= 0.1519829846004524E-15
_JPCAL=  4.184000000000000    
_PLANCK= 0.6626075540000000E-33
_TOA= 0.5291772109200000    
_TOANG= 0.5291772109200000    
_TORAD= 0.1745329251994330E-01
_TOCM=  219474.6306700000    
_TODEBYE=  2.541580000000000    
_TOE= 0.4803242000000000E-09
_TOEV=  27.21138505000000    
_TOHERTZ=  6579683920729000.    
_TOHZ=  6579683920729000.    
_TOK=  315775.0400000000    
_TOKCAL=  627.5096000000000    
_TOKELVIN=  315775.0400000000    
_TOKJ=  2625.500000000000    
_TOKJOULE=  2625.500000000000    
_TOKG= 0.1660565586000000E-26
_ANG=  1.889726124565062    
_ANGSTROM=  1.889726124565062    
_RPAREF=  0.000000000000000    
_RPADISS=  0.000000000000000    
_IGNORE_UNDEF=  2.000000000000000    
_STRICTCHECK=  0.000000000000000    
_SEW_ONEEL=  0.000000000000000    
_CPPDONE=FALSE
_DKROLL_DONE=  0.000000000000000    
_FOCKDONE=  0.000000000000000    
_GRADONE=FALSE
_HESSDONE=FALSE
_INTDONE=TRUE
_SCFDONE=TRUE
_MODUL_BLOCK=FALSE
_MODUL_CUDA=FALSE
_MODUL_SLATER=FALSE
_MODUL_MRCC=FALSE
_MODUL_NBO6=FALSE
_MODUL_NECI=TRUE
_MODUL_AIMS=TRUE
_MRCC_EXEC=
_FITC_AO_SAVED=FALSE
_FITC_MO_SAVED=FALSE
_SHARED_FS=TRUE
_LSTYP=SEWARD
_INTYP=INTS
_GEOMTYP=ZMAT
_GRADTYP=ALASKA
_DIRECT=FALSE
_DKHO= -1.000000000000000    
_SYNCM=  0.000000000000000    
_BASIS=AUG-CC-PVTZ
_ZORIENT=  1.000000000000000    
_NELEC=  2.000000000000000    
!SPIN=  0.000000000000000    
_QSDSTEP=  0.000000000000000    
_QSDIRC=  0.000000000000000    
_PROGRAM=CI
_CPUSTEP= 0.6600000000000001    
_SYSSTEP= 0.2999999999999758E-01
_WALLSTEP=  1.170000000000000    
!DFMP2=  0.000000000000000    
!DFSCF=  0.000000000000000    
!SCSGRD=  0.000000000000000    
_BASINP=  610.0000000000000    
_CPUTOT=  12.75000000000000    
_DFTEXFAC=  1.000000000000000    
_DMX=  0.000000000000000    
_DMY=  0.000000000000000    
_DMZ=  0.000000000000000    
_DMX_SCF=  0.000000000000000    
_DMY_SCF=  0.000000000000000    
_DMZ_SCF=  0.000000000000000    
_EHOMO=-0.9178683692302052    
_ELUMO= 0.1105368827037534    
_EIGS=-0.9178683692302052    
_ENERGD= -2.900597917104004    
_ENERGD0= -2.900597917104004    
_ENERGD1= -2.900597917104004    
_ENERGD2= -2.900597917104004    
_ENERGP= -2.900597917104004    
_ENERGP0= -2.900597917104004    
_ENERGP1= -2.900597917104004    
_ENERGP2= -2.900597917104004    
_ENERGR= -2.861183426115564    
_ENERGY= -2.900597917104004    
_ENERGY_METHOD=CI
_ENERGY_BASIS=aug-cc-pVTZ
_ENUC=  0.000000000000000    
_GRADEXFAC=  9999.000000000000    
_GRADMETHOD=FALSE
_NMRMETHOD=  0.000000000000000    
_NMRMAGNET=  0.000000000000000    
!GRID_FREEZE= -1.000000000000000    
_ITERATIONS=  4.000000000000000    
_LASTNELEC=  2.000000000000000    
_LASTSPIN=  0.000000000000000    
_LASTSYM=  1.000000000000000    
_MPP_PROG=  1.000000000000000    
_MSNSTATES=  0.000000000000000    
_RS2PHASE=  0.000000000000000    
_NPROC_MPP=  30.00000000000000    
_NPROC_MPPX=  30.00000000000000    
_NPROC_SMP=  1.000000000000000    
_NUMSTEP=  0.000000000000000    
_ORBITAL=  2140.200000000000    
_PI=  3.141592653589793    
!MCACT=  1.000000000000000    
!MCCLOSED=  0.000000000000000    
!MCFREEZE=  0.000000000000000    
!MCMS2=  0.000000000000000    
!MCNEL=  2.000000000000000    
!MCNSTSYM=  1.000000000000000    
!MCSTATE=  1.000000000000000    
!MCSYM=  1.000000000000000    
!MCWEIGHT=  1.000000000000000    
_SEIG_MIN= 0.2688407111491492E-01
_SEWPROP=TRUE
_STATUS=  1.000000000000000    
_SYSTOT=  18.09000000000000    
_VERSION=  2015001.000000000    
_WALLTOT=  44.44000000000000    
_DATE=14-Mar-20
_LASTORB=MCSCF
_MACHINE= 64 bit mpp version
_OUTPUT=/global/cscratch1/sd/rbello/Quantum_Chem/Atomic/molpro.xml
_PGROUP=D2h
_TIME=12:58:21
_LIBMOL=/global/common/cori/software/molpro/2015/molprop_2015_1_linux_x86_64_i8/lib/
_VIGRDC=  0.000000000000000    
!VIBCNT=  0.000000000000000    
!RGHFCNT=  0.000000000000000    
!SURFREC=  0.000000000000000    
!ROTREC=  0.000000000000000    
!POLYREC=  0.000000000000000    
!DIPREC=  0.000000000000000    
!DIP4DREC=  0.000000000000000    
!DIPROT=  0.000000000000000    
!DIP4DROT=  0.000000000000000    
!PTREC=  0.000000000000000    
!PT4DREC=  0.000000000000000    
!VSCFREC=  0.000000000000000    
!VCIREC=  0.000000000000000    
!PVCIREC=  0.000000000000000    
!VMP2REC=  0.000000000000000    
!VMCSCFREC=  0.000000000000000    
!VMRCIREC=  0.000000000000000    
!VIBSTATEREC=  0.000000000000000    
!VIBSTATECNT=  0.000000000000000    
!VIBINFO=  0.000000000000000    
!GAREC=  0.000000000000000    
!SCFORB=  21002.00000000000    
!MCORB=  21402.00000000000    
!CIOCC=  1.000000000000000    
!CICORE=  0.000000000000000    
!CICLOS=  0.000000000000000    
!CIISTSYM=  1.000000000000000    
!CIISTMS2=  0.000000000000000    
!CIISTNEL=  2.000000000000000    
!NEWMOL= -1.000000000000000    
!NEWSYM= -1.000000000000000    
_SLFILES=slscratch
_NGSSTO=  9.000000000000000    
_SIN=SIN
_COS=COS
_TAN=TAN
_ACOS=ACOS
_ASIN=ASIN
_ATAN=ATAN
_COSH=COSH
_SINH=SINH
_TANH=TANH
_ABS=ABS
_MOD=MOD
_ERF=ERF
_REFC=REFC
_ERFC=ERFC
_HYPOT=HYPOT
_J0=J0
_J1=J1
_JN=JN
_GAMMA=GAMMA
_LGAMMA=LGAMMA
_Y0=Y0
_Y1=Y1
_YN=YN
_EXP=EXP
_LOG=LOG
_LOG10=LOG10
_SQRT=SQRT
_INT=INT
_NINT=NINT
_MAX=MAX
_MIN=MIN
_COSMO=  0.000000000000000    
_COSMOIT=  0.000000000000000    
_COSMOES=  0.000000000000000    
_COSMOEDS=  0.000000000000000    
_COSMOEC=  0.000000000000000    
_COSMOEDCORR=  0.000000000000000    
_FEPSI=  1.000000000000000    
_SL_IsMM=  0.000000000000000    
_SL_NSYM=  8.000000000000000    
_SL_System_BitSw=  0.000000000000000    
_SL_Unique_atoms=  0.000000000000000    
_SL_GRAD=  0.000000000000000    
_SL_MAXUPD_Hess=  5.000000000000000    
_SL_N_PRINT_COD=  5.000000000000000    
_SL_PRINT_CODES=  0.000000000000000    
_SL_BasType=  0.000000000000000    
_SL_Energy_Pred=  0.000000000000000    
_SL_New_Coords=  0.000000000000000    
_SL_Total_Nuclea=  0.000000000000000    
_SL_Highest_Mltp=  0.000000000000000    
_SL_Ref_Geom=  0.000000000000000    
_SL_Symmetry_ope=  1.000000000000000    
_SL_agrad=  0.000000000000000    
_SL_GrdMax=  0.000000000000000    
_SL_GrdNorm=  0.000000000000000    
_SL_GrdRMS=  0.000000000000000    
_SL_Hss_Q=  0.000000000000000    
_SL_Hss_X=  0.000000000000000    
_SL_BMxOld=  0.000000000000000    
_SL_KtB=  0.000000000000000    
_SL_TROld=  0.000000000000000    
_SL_No_of_Intern=  0.000000000000000    
_SL_Hess=  0.000000000000000    
_SL_K=  0.000000000000000    
!LATTICE= -1.000000000000000    
!NEWLATTICE=  0.000000000000000    
!LATGRAD_VAR=FALSE
!SEW_LATTICE=  1.000000000000000    
!LOCAL=  0.000000000000000    
!SAVEDOM= -1.000000000000000    
!RESTDOM= -1.000000000000000    
!SAVEDOM_HF= -1.000000000000000    
!RESTDOM_HF= -1.000000000000000    
!HESSREC=  0.000000000000000    
!FREQREC=  0.000000000000000    
!NMODREC=  0.000000000000000    
!GTASKS=  0.000000000000000    
!HTASKS=  0.000000000000000    
!SAVEDOM_EOM= -1.000000000000000    
!RESTDOM_EOM= -1.000000000000000    
!GRADSTATE= -1.000000000000000    
!THRCHG= 0.1000000000000000    
!DEBUG= -1.000000000000000    
!CFIT_CPHF=  0.000000000000000    
!RDOMAUX_CPHF=  3.000000000000000    
!THRAO_CPHF= 0.1000000000000000E-09
!THRMO_CPHF= 0.1000000000000000E-08
!THROV_CPHF= 0.1000000000000000E-11
!THRSW_CPHF= 0.1000000000000000E-09
!THRPROD_CPHF= 0.1000000000000000E-08
!THRAOPR_CPHF= 0.1000000000000000E-11
!CFIT_SCFGRD=  0.000000000000000    
!RDOMAUX_SCFGRD=  5.000000000000000    
!THRAO_SCFGRD= 0.1000000000000000E-09
!THRMO_SCFGRD= 0.1000000000000000E-08
!THROV_SCFGRD= 0.1000000000000000E-11
!THRSW_SCFGRD= 0.1000000000000000E-09
!THRPROD_SCFGRD= 0.1000000000000000E-08
!THRAOPR_SCFGRD= 0.1000000000000000E-11
!LOCFIT_SCF=  0.000000000000000    
!LOCFIT_MP2= -1.000000000000000    
_RIDOM=  0.000000000000000    
!CC2_METHOD=  0.000000000000000    
_BASIS2006=FALSE
_SVDDEL= -1.000000000000000    
_SVDDELA= -1.000000000000000    
_SVDDELP= -1.000000000000000    
_SVDDELF= -1.000000000000000    
_SVDDELS= -1.000000000000000    
_SVDDEL_ABS= -1.000000000000000    
_SVDDELA_ABS= -1.000000000000000    
_SVDDELP_ABS= -1.000000000000000    
_SVDDELF_ABS= -1.000000000000000    
_SVDDELS_ABS= -1.000000000000000    
_MAXBASIS=  0.000000000000000    
!OPT_CONICAL=  0.000000000000000    
!CLEARSP_JGRID=  0.000000000000000    
_GRDHYBR=  0.000000000000000    
_STATEGRAD=  1.000000000000000    
_4EXT_NDISKS=  1.000000000000000    
_C0= 0.9919841990579856    
_C0R= 0.9919841990579856    
!ZMP=  0.000000000000000    
_MAXIT_ZMP=  500.0000000000000    
_MAXDIS_ZMP=  100.0000000000000    
_ACCU_ZMP=  14.00000000000000    
_SHIFTA_ZMP= -100.0000000000000    
!EMBEDFLAG=  1.000000000000000    
!EMBED=FALSE
!EMBED_F12=FALSE
!EMBEDNUC=  0.000000000000000    
_EMBEDENERGY=  0.000000000000000    
_KSPACETIME=  0.000000000000000    
_RSPACETIME=  0.000000000000000    
!EMBED_DFC=FALSE
!NUM_VOIDS=  0.000000000000000    
_IBODY=  0.000000000000000    
_EMBE_TOTAL=  0.000000000000000    
_EMBE_HF=  0.000000000000000    
_EMBE_CORR=  0.000000000000000    
!EMBED_PROJ=FALSE
!EMBED_TRUNC=  0.000000000000000    
!EMB_PROJ_ZMU=  1000000.000000000    
!CORRECTION=  0.000000000000000    
!CORRECTION_HF=  0.000000000000000    
!EMBED_ENERGY=  0.000000000000000    
!EMBED_NAXC=FALSE
!EMBED_AORB=  0.000000000000000    
!EMBED_NACORR=  0.000000000000000    
!EMBED_MP2=FALSE
!EMBED_TRUNC_PERTURBATION=FALSE
!EMBED_FROZEN=  0.000000000000000    
_CHANGE_BASIS=FALSE
_RESTORE_BASIS=FALSE
_FIX_EMBED_GUESS=FALSE
!EDFT=  0.000000000000000    
_IFASTLATGRAD=  0.000000000000000    
_SINDEX=  0.000000000000000    
_AVDOM_OSV=  0.000000000000000    
_AVDOM_PNO=  0.000000000000000    
_AVDOM_PAO=  0.000000000000000    
_AVDOM_LMO=  0.000000000000000    
_CC2OSV_FLAG=  0.000000000000000    
_TMADC2_FLAG=FALSE
_PROPADC2_FLAG=FALSE
_LEN_VirQ=  0.000000000000000    
_GRDCC2LR_FLAG=FALSE
_GRDADC2_FLAG=FALSE
_DMX_CC=  0.000000000000000    
_DMY_CC=  0.000000000000000    
_DMZ_CC=  0.000000000000000    
_DMX_NUC=  0.000000000000000    
_DMY_NUC=  0.000000000000000    
_DMZ_NUC=  0.000000000000000    
GX1=  0.000000000000000    
GY1=  0.000000000000000    
GZ1=  0.000000000000000    
E= -2.900597917104004    
[Atoms] Angs
HE    1    2         0.0000000000        0.0000000000        0.0000000000
[GTO]
   1 0
 s    6  1.00
  0.2340000000D+03  0.2587000273D-02
  0.3516000000D+02  0.1953300206D-01
  0.7989000000D+01  0.9099800959D-01
  0.2212000000D+01  0.2720500287D+00
  0.6669000000D+00  0.4780650504D+00
  0.2089000000D+00  0.3077370324D+00
 s    6  1.00
  0.2340000000D+03  0.0000000000D+00
  0.3516000000D+02  0.0000000000D+00
  0.7989000000D+01  0.0000000000D+00
  0.2212000000D+01  0.0000000000D+00
  0.6669000000D+00  0.1000000000D+01
  0.2089000000D+00  0.0000000000D+00
 s    6  1.00
  0.2340000000D+03  0.0000000000D+00
  0.3516000000D+02  0.0000000000D+00
  0.7989000000D+01  0.0000000000D+00
  0.2212000000D+01  0.0000000000D+00
  0.6669000000D+00  0.0000000000D+00
  0.2089000000D+00  0.1000000000D+01
 s    1  1.00
  0.5138000000D-01  0.1000000000D+01
 p    1  1.00
  0.3044000000D+01  0.1000000000D+01
 p    1  1.00
  0.7580000000D+00  0.1000000000D+01
 p    1  1.00
  0.1993000000D+00  0.1000000000D+01
 d    1  1.00
  0.1965000000D+01  0.1000000000D+01
 d    1  1.00
  0.4592000000D+00  0.1000000000D+01
 
 
[MO]
 Sym=      1.1
 Ene=       0.0000
 Spin= Alpha
 Occup=    1.983991
1 1.00438992716380
2 -0.004472472012255
3 -0.004069895779679
4 0.007286357746834
5 0.0
6 0.0
7 0.0
8 0.0
9 0.0
10 0.0
11 0.0
12 0.0
13 0.0
14 -0.000000000000000
15 0.000000000000000
16 -0.000000000000000
17 0.0
18 0.0
19 0.0
20 0.000000000000000
21 -0.000000000000000
22 0.000000000000000
23 0.0
24 0.0
25 0.0
 Sym=      2.1
 Ene=       0.0000
 Spin= Alpha
 Occup=    0.007444
1 -2.47695799203285
2 1.14268485650661
3 1.68426572568000
4 -0.012938970486347
5 0.0
6 0.0
7 0.0
8 0.0
9 0.0
10 0.0
11 0.0
12 0.0
13 0.0
14 -0.000000000000000
15 0.000000000000000
16 -0.000000000000000
17 0.0
18 0.0
19 0.0
20 0.000000000000000
21 -0.000000000000000
22 0.000000000000000
23 0.0
24 0.0
25 0.0
 Sym=      1.2
 Ene=       0.0000
 Spin= Alpha
 Occup=    0.002596
1 0.0
2 0.0
3 0.0
4 0.0
5 0.32040163317298
6 0.0
7 0.0
8 0.73488690194723
9 0.0
10 0.0
11 0.083555530503090
12 0.0
13 0.0
14 0.0
15 0.0
16 0.0
17 0.0
18 0.0
19 0.0
20 0.0
21 0.0
22 0.0
23 0.0
24 0.0
25 0.0
 Sym=      1.3
 Ene=       0.0000
 Spin= Alpha
 Occup=    0.002596
1 0.0
2 0.0
3 0.0
4 0.0
5 0.0
6 0.32040163317298
7 0.0
8 0.0
9 0.73488690194723
10 0.0
11 0.0
12 0.083555530503090
13 0.0
14 0.0
15 0.0
16 0.0
17 0.0
18 0.0
19 0.0
20 0.0
21 0.0
22 0.0
23 0.0
24 0.0
25 0.0
 Sym=      1.5
 Ene=       0.0000
 Spin= Alpha
 Occup=    0.002596
1 0.0
2 0.0
3 0.0
4 0.0
5 0.0
6 0.0
7 0.32040163317259
8 0.0
9 0.0
10 0.73488690194816
11 0.0
12 0.0
13 0.083555530502030
14 0.0
15 0.0
16 0.0
17 0.0
18 0.0
19 0.0
20 0.0
21 0.0
22 0.0
23 0.0
24 0.0
25 0.0
 Sym=      3.1
 Ene=       0.0000
 Spin= Alpha
 Occup=    0.000155
1 -3.48176558523889
2 4.02076019295663
3 -0.57830075009050
4 0.13190995590168
5 0.0
6 0.0
7 0.0
8 0.0
9 0.0
10 0.0
11 0.0
12 0.0
13 0.0
14 -0.000000000000000
15 0.000000000000000
16 -0.000000000000000
17 0.0
18 0.0
19 0.0
20 0.000000000000000
21 -0.000000000000000
22 -0.000000000000000
23 0.0
24 0.0
25 0.0
 Sym=      2.2
 Ene=       0.0000
 Spin= Alpha
 Occup=    0.000082
1 0.0
2 0.0
3 0.0
4 0.0
5 1.08265577106768
6 0.0
7 0.0
8 -0.67814920441420
9 0.0
10 0.0
11 -0.27894646956164
12 0.0
13 0.0
14 0.0
15 0.0
16 0.0
17 0.0
18 0.0
19 0.0
20 0.0
21 0.0
22 0.0
23 0.0
24 0.0
25 0.0
 Sym=      2.3
 Ene=       0.0000
 Spin= Alpha
 Occup=    0.000082
1 0.0
2 0.0
3 0.0
4 0.0
5 0.0
6 1.08265577106768
7 0.0
8 0.0
9 -0.67814920441421
10 0.0
11 0.0
12 -0.27894646956163
13 0.0
14 0.0
15 0.0
16 0.0
17 0.0
18 0.0
19 0.0
20 0.0
21 0.0
22 0.0
23 0.0
24 0.0
25 0.0
 Sym=      2.5
 Ene=       0.0000
 Spin= Alpha
 Occup=    0.000082
1 0.0
2 0.0
3 0.0
4 0.0
5 0.0
6 0.0
7 1.08265577106987
8 0.0
9 0.0
10 -0.67814920441886
11 0.0
12 0.0
13 -0.27894646955677
14 0.0
15 0.0
16 0.0
17 0.0
18 0.0
19 0.0
20 0.0
21 0.0
22 0.0
23 0.0
24 0.0
25 0.0
 Sym=      4.1
 Ene=       0.0000
 Spin= Alpha
 Occup=    0.000066
1 0.000000000000000
2 -0.000000000000001
3 0.000000000000000
4 -0.000000000000000
5 0.0
6 0.0
7 0.0
8 0.0
9 0.0
10 0.0
11 0.0
12 0.0
13 0.0
14 0.68737933405790
15 -0.68737933405790
16 0.000000000000000
17 0.0
18 0.0
19 0.0
20 0.30985061417791
21 -0.30985061417791
22 0.000000000000000
23 0.0
24 0.0
25 0.0
 Sym=      5.1
 Ene=       0.0000
 Spin= Alpha
 Occup=    0.000066
1 0.000000000000000
2 -0.000000000000000
3 0.000000000000000
4 -0.000000000000000
5 0.0
6 0.0
7 0.0
8 0.0
9 0.0
10 0.0
11 0.0
12 0.0
13 0.0
14 -0.39685864354879
15 -0.39685864354879
16 0.79371728709758
17 0.0
18 0.0
19 0.0
20 -0.17889233551088
21 -0.17889233551088
22 0.35778467102176
23 0.0
24 0.0
25 0.0
 Sym=      1.4
 Ene=       0.0000
 Spin= Alpha
 Occup=    0.000066
1 0.0
2 0.0
3 0.0
4 0.0
5 0.0
6 0.0
7 0.0
8 0.0
9 0.0
10 0.0
11 0.0
12 0.0
13 0.0
14 0.0
15 0.0
16 0.0
17 0.79371728710700
18 0.0
19 0.0
20 0.0
21 0.0
22 0.0
23 0.35778467100896
24 0.0
25 0.0
 Sym=      1.6
 Ene=       0.0000
 Spin= Alpha
 Occup=    0.000066
1 0.0
2 0.0
3 0.0
4 0.0
5 0.0
6 0.0
7 0.0
8 0.0
9 0.0
10 0.0
11 0.0
12 0.0
13 0.0
14 0.0
15 0.0
16 0.0
17 0.0
18 0.79371728710797
19 0.0
20 0.0
21 0.0
22 0.0
23 0.0
24 0.35778467100763
25 0.0
 Sym=      1.7
 Ene=       0.0000
 Spin= Alpha
 Occup=    0.000066
1 0.0
2 0.0
3 0.0
4 0.0
5 0.0
6 0.0
7 0.0
8 0.0
9 0.0
10 0.0
11 0.0
12 0.0
13 0.0
14 0.0
15 0.0
16 0.0
17 0.0
18 0.0
19 0.79371728710797
20 0.0
21 0.0
22 0.0
23 0.0
24 0.0
25 0.35778467100763
 Sym=      6.1
 Ene=       0.0000
 Spin= Alpha
 Occup=    0.000006
1 0.000000000000000
2 -0.000000000000000
3 0.000000000000000
4 -0.000000000000000
5 0.0
6 0.0
7 0.0
8 0.0
9 0.0
10 0.0
11 0.0
12 0.0
13 0.0
14 0.38465195042605
15 0.38466002280547
16 -0.76931197323152
17 0.0
18 0.0
19 0.0
20 -0.52292332574723
21 -0.52293429991620
22 1.04585762566343
23 0.0
24 0.0
25 0.0
 Sym=      7.1
 Ene=       0.0000
 Spin= Alpha
 Occup=    0.000006
1 0.000000000000001
2 -0.000000000000002
3 0.000000000000002
4 -0.000000000000002
5 0.0
6 0.0
7 0.0
8 0.0
9 0.0
10 0.0
11 0.0
12 0.0
13 0.0
14 -0.66624604254045
15 0.66624138195001
16 0.000004660590434
17 0.0
18 0.0
19 0.0
20 0.90574244053987
21 -0.90573610460047
22 -0.000006335939405
23 0.0
24 0.0
25 0.0
 Sym=      8.1
 Ene=       0.0000
 Spin= Alpha
 Occup=    0.000000
1 -0.62195586216774
2 1.24004238510666
3 -1.59398462052229
4 1.60426533436412
5 0.0
6 0.0
7 0.0
8 0.0
9 0.0
10 0.0
11 0.0
12 0.0
13 0.0
14 -0.000000000000001
15 0.000000000000001
16 0.000000000000000
17 0.0
18 0.0
19 0.0
20 0.000000000000001
21 -0.000000000000001
22 -0.000000000000000
23 0.0
24 0.0
25 0.0
 Sym=      3.2
 Ene=       0.0000
 Spin= Alpha
 Occup=    0.000004
1 0.0
2 0.0
3 0.0
4 0.0
5 0.57117272876041
6 0.0
7 0.0
8 -1.18810323723454
9 0.0
10 0.0
11 1.25851386386905
12 0.0
13 0.0
14 0.0
15 0.0
16 0.0
17 0.0
18 0.0
19 0.0
20 0.0
21 0.0
22 0.0
23 0.0
24 0.0
25 0.0
 Sym=      3.3
 Ene=       0.0000
 Spin= Alpha
 Occup=    0.000004
1 0.0
2 0.0
3 0.0
4 0.0
5 0.0
6 0.57117272876040
7 0.0
8 0.0
9 -1.18810323723454
10 0.0
11 0.0
12 1.25851386386905
13 0.0
14 0.0
15 0.0
16 0.0
17 0.0
18 0.0
19 0.0
20 0.0
21 0.0
22 0.0
23 0.0
24 0.0
25 0.0
 Sym=      2.4
 Ene=       0.0000
 Spin= Alpha
 Occup=    0.000006
1 0.0
2 0.0
3 0.0
4 0.0
5 0.0
6 0.0
7 0.0
8 0.0
9 0.0
10 0.0
11 0.0
12 0.0
13 0.0
14 0.0
15 0.0
16 0.0
17 -0.76931197323592
18 0.0
19 0.0
20 0.0
21 0.0
22 0.0
23 1.04585762568700
24 0.0
25 0.0
 Sym=      3.5
 Ene=       0.0000
 Spin= Alpha
 Occup=    0.000004
1 0.0
2 0.0
3 0.0
4 0.0
5 0.0
6 0.0
7 0.57117272875647
8 0.0
9 0.0
10 -1.18810323723130
11 0.0
12 0.0
13 1.25851386387020
14 0.0
15 0.0
16 0.0
17 0.0
18 0.0
19 0.0
20 0.0
21 0.0
22 0.0
23 0.0
24 0.0
25 0.0
 Sym=      2.6
 Ene=       0.0000
 Spin= Alpha
 Occup=    0.000006
1 0.0
2 0.0
3 0.0
4 0.0
5 0.0
6 0.0
7 0.0
8 0.0
9 0.0
10 0.0
11 0.0
12 0.0
13 0.0
14 0.0
15 0.0
16 0.0
17 0.0
18 -0.76931197323491
19 0.0
20 0.0
21 0.0
22 0.0
23 0.0
24 1.04585762568745
25 0.0
 Sym=      2.7
 Ene=       0.0000
 Spin= Alpha
 Occup=    0.000006
1 0.0
2 0.0
3 0.0
4 0.0
5 0.0
6 0.0
7 0.0
8 0.0
9 0.0
10 0.0
11 0.0
12 0.0
13 0.0
14 0.0
15 0.0
16 0.0
17 0.0
18 0.0
19 -0.76931197323491
20 0.0
21 0.0
22 0.0
23 0.0
24 0.0
25 1.04585762568745
