[Molden Format]
[Molpro variables]
_NUMVAR=  891.0000000000000    
_AVOGAD= 0.6022136736000000E+24
_BOLTZ= 0.1380658000000000E-22
_CLIGHT=  29979245800.00000    
_EV= 0.3674932379085202E-01
_ENULL= 0.8854187817000000E-11
_KJOULE= 0.3808798324128737E-03
_KJOULE/MOL= 0.3808798324128737E-03
_CM= 0.4556335267302901E-05
_CM-1= 0.4556335267302901E-05
_DEB2SI= 0.3335641000000000E-29
_AMU2AU=  1822.888390000000    
_KCAL= 0.1593601117815568E-02
_KCAL/MOL= 0.1593601117815568E-02
_KELVIN= 0.3166811411060229E-05
_JOULE= 0.4359748200000000E-17
_HERTZ= 0.1519829846004524E-15
_HZ= 0.1519829846004524E-15
_JPCAL=  4.184000000000000    
_PLANCK= 0.6626075540000000E-33
_TOA= 0.5291772109200000    
_TOANG= 0.5291772109200000    
_TORAD= 0.1745329251994330E-01
_TOCM=  219474.6306700000    
_TODEBYE=  2.541580000000000    
_TOE= 0.4803242000000000E-09
_TOEV=  27.21138505000000    
_TOHERTZ=  6579683920729000.    
_TOHZ=  6579683920729000.    
_TOK=  315775.0400000000    
_TOKCAL=  627.5096000000000    
_TOKELVIN=  315775.0400000000    
_TOKJ=  2625.500000000000    
_TOKJOULE=  2625.500000000000    
_TOKG= 0.1660565586000000E-26
_ANG=  1.889726124565062    
_ANGSTROM=  1.889726124565062    
_RPAREF=  0.000000000000000    
_RPADISS=  0.000000000000000    
_IGNORE_UNDEF=  2.000000000000000    
_STRICTCHECK=  0.000000000000000    
_SEW_ONEEL=  0.000000000000000    
_CPPDONE=FALSE
_DKROLL_DONE=  0.000000000000000    
_FOCKDONE=TRUE
_GRADONE=FALSE
_HESSDONE=FALSE
_INTDONE=TRUE
_SCFDONE=TRUE
_MODUL_BLOCK=FALSE
_MODUL_CUDA=FALSE
_MODUL_SLATER=FALSE
_MODUL_MRCC=FALSE
_MODUL_NBO6=FALSE
_MODUL_NECI=TRUE
_MODUL_AIMS=TRUE
_MRCC_EXEC=
_FITC_AO_SAVED=FALSE
_FITC_MO_SAVED=FALSE
_SHARED_FS=TRUE
_LSTYP=SEWARD
_INTYP=INTS
_GEOMTYP=ZMAT
_GRADTYP=ALASKA
_DIRECT=FALSE
_DKHO= -1.000000000000000    
_SYNCM=  0.000000000000000    
_BASIS=AUG-CC-PVTZ
_ZORIENT=  1.000000000000000    
_NELEC=  6.000000000000000    
!SPIN=  0.000000000000000    
_QSDSTEP=  0.000000000000000    
_QSDIRC=  0.000000000000000    
_PROGRAM=RHF-SCF
_CPUSTEP= 0.1300000000000003    
_SYSSTEP= 0.4999999999999993E-01
_WALLSTEP= 0.2500000000000000    
!DFSCF=  0.000000000000000    
!SCSGRD=  0.000000000000000    
_BASINP=  610.0000000000000    
_CPUTOT=  3.050000000000000    
_CPUSORT= 0.6699999999999999    
_SYSSORT= 0.6000000000000005E-01
_WALLSORT= 0.7899999991059303    
_DFTEXFAC=  1.000000000000000    
_DMX=  0.000000000000000    
_DMY=  0.000000000000000    
_DMZ=  0.000000000000000    
_DMX_SCF=  0.000000000000000    
_DMY_SCF=  0.000000000000000    
_DMZ_SCF=  0.000000000000000    
_EHOMO=-0.2164443128640857    
_ELUMO=-0.2822227955070123E-02
_EIGS= -2.782050351097813    
_ENERGY= -14.62086053281151    
_ENERGY_METHOD=RHF
_ENERGY_BASIS=aug-cc-pVTZ
_GEOMETRY_METHOD=
_GEOMETRY_BASIS=
_ENUC=  4.500000000000000    
_GRADEXFAC=  9999.000000000000    
_GRADMETHOD=  1.000000000000000    
_NMRMETHOD=  0.000000000000000    
_NMRMAGNET=  0.000000000000000    
!GRID_FREEZE= -1.000000000000000    
_ITERATIONS=  8.000000000000000    
_LASTNELEC=  6.000000000000000    
_LASTSPIN=  0.000000000000000    
_LASTSYM=  1.000000000000000    
_MPP_PROG=  1.000000000000000    
_MSNSTATES=  0.000000000000000    
_RS2PHASE=  0.000000000000000    
_NPROC_MPP=  31.00000000000000    
_NPROC_MPPX=  31.00000000000000    
_NPROC_SMP=  1.000000000000000    
_NUMSTEP=  0.000000000000000    
_ORBITAL=  2100.200000000000    
_PI=  3.141592653589793    
_SEIG_MIN= 0.8140628482178990E-05
_SEWPROP=TRUE
_STATUS=  1.000000000000000    
_SYSTOT= 0.2499999999999999    
_VERSION=  2015001.000000000    
_WALLTOT=  4.370000000000000    
_DATE=15-Apr-20
_LASTORB=RHF
_MACHINE= 64 bit mpp version
_OUTPUT=/global/cscratch1/sd/rbello/Quantum_Chem/molpro.xml
_PGROUP=D2h
_TIME=17:01:35
_LIBMOL=/global/common/cori/software/molpro/2015/molprop_2015_1_linux_x86_64_i8/lib/
_VIGRDC=  0.000000000000000    
!VIBCNT=  0.000000000000000    
!RGHFCNT=  0.000000000000000    
!SURFREC=  0.000000000000000    
!ROTREC=  0.000000000000000    
!POLYREC=  0.000000000000000    
!DIPREC=  0.000000000000000    
!DIP4DREC=  0.000000000000000    
!DIPROT=  0.000000000000000    
!DIP4DROT=  0.000000000000000    
!PTREC=  0.000000000000000    
!PT4DREC=  0.000000000000000    
!VSCFREC=  0.000000000000000    
!VCIREC=  0.000000000000000    
!PVCIREC=  0.000000000000000    
!VMP2REC=  0.000000000000000    
!VMCSCFREC=  0.000000000000000    
!VMRCIREC=  0.000000000000000    
!VIBSTATEREC=  0.000000000000000    
!VIBSTATECNT=  0.000000000000000    
!VIBINFO=  0.000000000000000    
!GAREC=  0.000000000000000    
!SCFORB=  21002.00000000000    
!NEWMOL= -1.000000000000000    
!NEWSYM= -1.000000000000000    
_SLFILES=slscratch
_NGSSTO=  9.000000000000000    
_SIN=SIN
_COS=COS
_TAN=TAN
_ACOS=ACOS
_ASIN=ASIN
_ATAN=ATAN
_COSH=COSH
_SINH=SINH
_TANH=TANH
_ABS=ABS
_MOD=MOD
_ERF=ERF
_REFC=REFC
_ERFC=ERFC
_HYPOT=HYPOT
_J0=J0
_J1=J1
_JN=JN
_GAMMA=GAMMA
_LGAMMA=LGAMMA
_Y0=Y0
_Y1=Y1
_YN=YN
_EXP=EXP
_LOG=LOG
_LOG10=LOG10
_SQRT=SQRT
_INT=INT
_NINT=NINT
_MAX=MAX
_MIN=MIN
_COSMO=  0.000000000000000    
_COSMOIT=  0.000000000000000    
_COSMOES=  0.000000000000000    
_COSMOEDS=  0.000000000000000    
_COSMOEC=  0.000000000000000    
_COSMOEDCORR=  0.000000000000000    
_FEPSI=  1.000000000000000    
_SL_IsMM=  0.000000000000000    
_SL_NSYM=  8.000000000000000    
_SL_System_BitSw=  0.000000000000000    
_SL_Unique_atoms=  0.000000000000000    
_SL_GRAD=  0.000000000000000    
_SL_MAXUPD_Hess=  5.000000000000000    
_SL_N_PRINT_COD=  5.000000000000000    
_SL_PRINT_CODES=  0.000000000000000    
_SL_BasType=  0.000000000000000    
_SL_Energy_Pred=  0.000000000000000    
_SL_New_Coords=  0.000000000000000    
_SL_Total_Nuclea=  0.000000000000000    
_SL_Highest_Mltp=  0.000000000000000    
_SL_Ref_Geom=  0.000000000000000    
_SL_Symmetry_ope=  1.000000000000000    
_SL_agrad=  0.000000000000000    
_SL_GrdMax=  0.000000000000000    
_SL_GrdNorm=  0.000000000000000    
_SL_GrdRMS=  0.000000000000000    
_SL_Hss_Q=  0.000000000000000    
_SL_Hss_X=  0.000000000000000    
_SL_BMxOld=  0.000000000000000    
_SL_KtB=  0.000000000000000    
_SL_TROld=  0.000000000000000    
_SL_No_of_Intern=  0.000000000000000    
_SL_Hess=  0.000000000000000    
_SL_K=  0.000000000000000    
!LATTICE= -1.000000000000000    
!NEWLATTICE=  0.000000000000000    
!LATGRAD_VAR=FALSE
!SEW_LATTICE=  1.000000000000000    
!LOCAL=  0.000000000000000    
!SAVEDOM= -1.000000000000000    
!RESTDOM= -1.000000000000000    
!SAVEDOM_HF= -1.000000000000000    
!RESTDOM_HF= -1.000000000000000    
!HESSREC=  0.000000000000000    
!FREQREC=  0.000000000000000    
!NMODREC=  0.000000000000000    
!GTASKS=  0.000000000000000    
!HTASKS=  0.000000000000000    
!SAVEDOM_EOM= -1.000000000000000    
!RESTDOM_EOM= -1.000000000000000    
!GRADSTATE= -1.000000000000000    
!THRCHG= 0.1000000000000000    
!DEBUG= -1.000000000000000    
!CFIT_CPHF=  0.000000000000000    
!RDOMAUX_CPHF=  3.000000000000000    
!THRAO_CPHF= 0.1000000000000000E-09
!THRMO_CPHF= 0.1000000000000000E-08
!THROV_CPHF= 0.1000000000000000E-11
!THRSW_CPHF= 0.1000000000000000E-09
!THRPROD_CPHF= 0.1000000000000000E-08
!THRAOPR_CPHF= 0.1000000000000000E-11
!CFIT_SCFGRD=  0.000000000000000    
!RDOMAUX_SCFGRD=  5.000000000000000    
!THRAO_SCFGRD= 0.1000000000000000E-09
!THRMO_SCFGRD= 0.1000000000000000E-08
!THROV_SCFGRD= 0.1000000000000000E-11
!THRSW_SCFGRD= 0.1000000000000000E-09
!THRPROD_SCFGRD= 0.1000000000000000E-08
!THRAOPR_SCFGRD= 0.1000000000000000E-11
!LOCFIT_SCF=  0.000000000000000    
!LOCFIT_MP2= -1.000000000000000    
_RIDOM=  0.000000000000000    
!CC2_METHOD=  0.000000000000000    
_BASIS2006=FALSE
_SVDDEL= -1.000000000000000    
_SVDDELA= -1.000000000000000    
_SVDDELP= -1.000000000000000    
_SVDDELF= -1.000000000000000    
_SVDDELS= -1.000000000000000    
_SVDDEL_ABS= -1.000000000000000    
_SVDDELA_ABS= -1.000000000000000    
_SVDDELP_ABS= -1.000000000000000    
_SVDDELF_ABS= -1.000000000000000    
_SVDDELS_ABS= -1.000000000000000    
_MAXBASIS=  0.000000000000000    
!OPT_CONICAL=  0.000000000000000    
!CLEARSP_JGRID=  0.000000000000000    
_GRDHYBR=  0.000000000000000    
_STATEGRAD=  1.000000000000000    
_4EXT_NDISKS=  1.000000000000000    
!ZMP=  0.000000000000000    
_MAXIT_ZMP=  500.0000000000000    
_MAXDIS_ZMP=  100.0000000000000    
_ACCU_ZMP=  14.00000000000000    
_SHIFTA_ZMP= -100.0000000000000    
!EMBEDFLAG=  1.000000000000000    
!EMBED=FALSE
!EMBED_F12=FALSE
!EMBEDNUC=  0.000000000000000    
_EMBEDENERGY=  0.000000000000000    
_KSPACETIME=  0.000000000000000    
_RSPACETIME=  0.000000000000000    
!EMBED_DFC=FALSE
!NUM_VOIDS=  0.000000000000000    
_IBODY=  0.000000000000000    
_EMBE_TOTAL=  0.000000000000000    
_EMBE_HF=  0.000000000000000    
_EMBE_CORR=  0.000000000000000    
!EMBED_PROJ=FALSE
!EMBED_TRUNC=  0.000000000000000    
!EMB_PROJ_ZMU=  1000000.000000000    
!CORRECTION=  0.000000000000000    
!CORRECTION_HF=  0.000000000000000    
!EMBED_ENERGY=  0.000000000000000    
!EMBED_NAXC=FALSE
!EMBED_AORB=  0.000000000000000    
!EMBED_NACORR=  0.000000000000000    
!EMBED_MP2=FALSE
!EMBED_TRUNC_PERTURBATION=FALSE
!EMBED_FROZEN=  0.000000000000000    
_CHANGE_BASIS=FALSE
_RESTORE_BASIS=FALSE
_FIX_EMBED_GUESS=FALSE
!EDFT=  0.000000000000000    
_IFASTLATGRAD=  0.000000000000000    
_SINDEX=  0.000000000000000    
_AVDOM_OSV=  0.000000000000000    
_AVDOM_PNO=  0.000000000000000    
_AVDOM_PAO=  0.000000000000000    
_AVDOM_LMO=  0.000000000000000    
_CC2OSV_FLAG=  0.000000000000000    
_TMADC2_FLAG=FALSE
_PROPADC2_FLAG=FALSE
_LEN_VirQ=  0.000000000000000    
_GRDCC2LR_FLAG=FALSE
_GRDADC2_FLAG=FALSE
R=  2.000000000000000    
GX1=  0.000000000000000    
GY1=  0.000000000000000    
GZ1= -1.000000000000000    
GX2=  0.000000000000000    
GY2=  0.000000000000000    
GZ2=  1.000000000000000    
[Atoms] Angs
LI    1    3         0.0000000000        0.0000000000       -0.5291772109
LI    2    3         0.0000000000        0.0000000000        0.5291772109
[GTO]
   1 0
 s   11  1.00
  0.5988000000D+04  0.1329999901D-03
  0.8989000000D+03  0.1024999924D-02
  0.2059000000D+03  0.5271999607D-02
  0.5924000000D+02  0.2092899844D-01
  0.1987000000D+02  0.6633999506D-01
  0.7406000000D+01  0.1657749877D+00
  0.2930000000D+01  0.3150379765D+00
  0.1189000000D+01  0.3935229707D+00
  0.4798000000D+00  0.1908699858D+00
  0.7509000000D-01  0.5413999597D-02
  0.2832000000D-01 -0.1327999901D-02
 s   11  1.00
  0.5988000000D+04 -0.2100000605D-04
  0.8989000000D+03 -0.1610000464D-03
  0.2059000000D+03 -0.8200002362D-03
  0.5924000000D+02 -0.3326000958D-02
  0.1987000000D+02 -0.1051900303D-01
  0.7406000000D+01 -0.2809700809D-01
  0.2930000000D+01 -0.5593601611D-01
  0.1189000000D+01 -0.9923702859D-01
  0.4798000000D+00 -0.1121890323D+00
  0.7509000000D-01  0.5678891636D+00
  0.2832000000D-01  0.5303821528D+00
 s   11  1.00
  0.5988000000D+04  0.0000000000D+00
  0.8989000000D+03  0.0000000000D+00
  0.2059000000D+03  0.0000000000D+00
  0.5924000000D+02  0.0000000000D+00
  0.1987000000D+02  0.0000000000D+00
  0.7406000000D+01  0.0000000000D+00
  0.2930000000D+01  0.0000000000D+00
  0.1189000000D+01  0.0000000000D+00
  0.4798000000D+00  0.0000000000D+00
  0.7509000000D-01  0.1000000000D+01
  0.2832000000D-01  0.0000000000D+00
 s   11  1.00
  0.5988000000D+04  0.0000000000D+00
  0.8989000000D+03  0.0000000000D+00
  0.2059000000D+03  0.0000000000D+00
  0.5924000000D+02  0.0000000000D+00
  0.1987000000D+02  0.0000000000D+00
  0.7406000000D+01  0.0000000000D+00
  0.2930000000D+01  0.0000000000D+00
  0.1189000000D+01  0.0000000000D+00
  0.4798000000D+00  0.0000000000D+00
  0.7509000000D-01  0.0000000000D+00
  0.2832000000D-01  0.1000000000D+01
 s    1  1.00
  0.7600000000D-02  0.1000000000D+01
 p    5  1.00
  0.3266000000D+01  0.8630004765D-02
  0.6511000000D+00  0.4753802625D-01
  0.1696000000D+00  0.2097721158D+00
  0.5578000000D-01  0.5285222918D+00
  0.2050000000D-01  0.3827442113D+00
 p    5  1.00
  0.3266000000D+01  0.0000000000D+00
  0.6511000000D+00  0.0000000000D+00
  0.1696000000D+00  0.0000000000D+00
  0.5578000000D-01  0.1000000000D+01
  0.2050000000D-01  0.0000000000D+00
 p    5  1.00
  0.3266000000D+01  0.0000000000D+00
  0.6511000000D+00  0.0000000000D+00
  0.1696000000D+00  0.0000000000D+00
  0.5578000000D-01  0.0000000000D+00
  0.2050000000D-01  0.1000000000D+01
 p    1  1.00
  0.9100000000D-02  0.1000000000D+01
 d    1  1.00
  0.1900000000D+00  0.1000000000D+01
 d    1  1.00
  0.7250000000D-01  0.1000000000D+01
 d    1  1.00
  0.4280000000D-01  0.1000000000D+01
 f    1  1.00
  0.1270000000D+00  0.1000000000D+01
 f    1  1.00
  0.8120000000D-01  0.1000000000D+01
  
   2 0
 s   11  1.00
  0.5988000000D+04  0.1329999901D-03
  0.8989000000D+03  0.1024999924D-02
  0.2059000000D+03  0.5271999607D-02
  0.5924000000D+02  0.2092899844D-01
  0.1987000000D+02  0.6633999506D-01
  0.7406000000D+01  0.1657749877D+00
  0.2930000000D+01  0.3150379765D+00
  0.1189000000D+01  0.3935229707D+00
  0.4798000000D+00  0.1908699858D+00
  0.7509000000D-01  0.5413999597D-02
  0.2832000000D-01 -0.1327999901D-02
 s   11  1.00
  0.5988000000D+04 -0.2100000605D-04
  0.8989000000D+03 -0.1610000464D-03
  0.2059000000D+03 -0.8200002362D-03
  0.5924000000D+02 -0.3326000958D-02
  0.1987000000D+02 -0.1051900303D-01
  0.7406000000D+01 -0.2809700809D-01
  0.2930000000D+01 -0.5593601611D-01
  0.1189000000D+01 -0.9923702859D-01
  0.4798000000D+00 -0.1121890323D+00
  0.7509000000D-01  0.5678891636D+00
  0.2832000000D-01  0.5303821528D+00
 s   11  1.00
  0.5988000000D+04  0.0000000000D+00
  0.8989000000D+03  0.0000000000D+00
  0.2059000000D+03  0.0000000000D+00
  0.5924000000D+02  0.0000000000D+00
  0.1987000000D+02  0.0000000000D+00
  0.7406000000D+01  0.0000000000D+00
  0.2930000000D+01  0.0000000000D+00
  0.1189000000D+01  0.0000000000D+00
  0.4798000000D+00  0.0000000000D+00
  0.7509000000D-01  0.1000000000D+01
  0.2832000000D-01  0.0000000000D+00
 s   11  1.00
  0.5988000000D+04  0.0000000000D+00
  0.8989000000D+03  0.0000000000D+00
  0.2059000000D+03  0.0000000000D+00
  0.5924000000D+02  0.0000000000D+00
  0.1987000000D+02  0.0000000000D+00
  0.7406000000D+01  0.0000000000D+00
  0.2930000000D+01  0.0000000000D+00
  0.1189000000D+01  0.0000000000D+00
  0.4798000000D+00  0.0000000000D+00
  0.7509000000D-01  0.0000000000D+00
  0.2832000000D-01  0.1000000000D+01
 s    1  1.00
  0.7600000000D-02  0.1000000000D+01
 p    5  1.00
  0.3266000000D+01  0.8630004765D-02
  0.6511000000D+00  0.4753802625D-01
  0.1696000000D+00  0.2097721158D+00
  0.5578000000D-01  0.5285222918D+00
  0.2050000000D-01  0.3827442113D+00
 p    5  1.00
  0.3266000000D+01  0.0000000000D+00
  0.6511000000D+00  0.0000000000D+00
  0.1696000000D+00  0.0000000000D+00
  0.5578000000D-01  0.1000000000D+01
  0.2050000000D-01  0.0000000000D+00
 p    5  1.00
  0.3266000000D+01  0.0000000000D+00
  0.6511000000D+00  0.0000000000D+00
  0.1696000000D+00  0.0000000000D+00
  0.5578000000D-01  0.0000000000D+00
  0.2050000000D-01  0.1000000000D+01
 p    1  1.00
  0.9100000000D-02  0.1000000000D+01
 d    1  1.00
  0.1900000000D+00  0.1000000000D+01
 d    1  1.00
  0.7250000000D-01  0.1000000000D+01
 d    1  1.00
  0.4280000000D-01  0.1000000000D+01
 f    1  1.00
  0.1270000000D+00  0.1000000000D+01
 f    1  1.00
  0.8120000000D-01  0.1000000000D+01
 
 
[MO]
 Sym=      1.1
 Ene=      -2.7821
 Spin= Alpha
 Occup=    2.000000
1 0.74071853272941
2 0.30659474843739
3 -0.059470171809140
4 -0.22223907367398
5 0.002273128860254
6 0.0
7 0.0
8 0.18590039184056
9 0.0
10 0.0
11 -0.31138150923843
12 0.0
13 0.0
14 -0.11995586604335
15 0.0
16 0.0
17 0.022519592097271
18 -0.011294909652044
19 -0.011294909652044
20 0.022589819304089
21 0.0
22 0.0
23 0.0
24 0.017355095375623
25 0.017355095375624
26 -0.034710190751247
27 0.0
28 0.0
29 0.0
30 0.017866228503021
31 0.017866228503021
32 -0.035732457006042
33 0.0
34 0.0
35 0.0
36 0.0
37 0.0
38 0.011387255375651
39 0.0
40 0.0
41 -0.007638803129132
42 0.0
43 0.0
44 -0.007638803129132
45 0.0
46 0.0
47 0.0
48 -0.013926658918779
49 0.0
50 0.0
51 0.009342286812553
52 0.0
53 0.0
54 0.009342286812553
55 0.0
56 0.74071853272941
57 0.30659474843739
58 -0.059470171809140
59 -0.22223907367398
60 0.002273128860254
61 0.0
62 0.0
63 -0.18590039184056
64 0.0
65 0.0
66 0.31138150923843
67 0.0
68 0.0
69 0.11995586604335
70 0.0
71 0.0
72 -0.022519592097271
73 -0.011294909652044
74 -0.011294909652044
75 0.022589819304089
76 0.0
77 0.0
78 0.0
79 0.017355095375623
80 0.017355095375624
81 -0.034710190751247
82 0.0
83 0.0
84 0.0
85 0.017866228503021
86 0.017866228503021
87 -0.035732457006042
88 0.0
89 0.0
90 0.0
91 0.0
92 0.0
93 -0.011387255375651
94 0.0
95 0.0
96 0.007638803129132
97 0.0
98 0.0
99 0.007638803129132
100 0.0
101 0.0
102 0.0
103 0.013926658918779
104 0.0
105 0.0
106 -0.009342286812553
107 0.0
108 0.0
109 -0.009342286812553
110 0.0
 Sym=      1.5
 Ene=      -2.5473
 Spin= Alpha
 Occup=    2.000000
1 0.71647096525260
2 -0.11645800475822
3 0.26374748891234
4 0.39502847309126
5 -0.15048320478913
6 0.0
7 0.0
8 0.10053077351236
9 0.0
10 0.0
11 0.014335471839491
12 0.0
13 0.0
14 0.002073895312069
15 0.0
16 0.0
17 -0.020545615869901
18 -0.001045812156235
19 -0.001045812156234
20 0.002091624312468
21 0.0
22 0.0
23 0.0
24 0.003102495851096
25 0.003102495851068
26 -0.006204991702164
27 0.0
28 0.0
29 0.0
30 -0.003640453727933
31 -0.003640453727930
32 0.007280907455863
33 0.0
34 0.0
35 0.0
36 0.0
37 0.0
38 -0.001917675372030
39 0.0
40 0.0
41 0.001286415747190
42 0.0
43 0.0
44 0.001286415747192
45 0.0
46 0.0
47 0.0
48 -0.002125225037039
49 0.0
50 0.0
51 0.001425644295096
52 0.0
53 0.0
54 0.001425644295087
55 0.0
56 -0.71647096525260
57 0.11645800475822
58 -0.26374748891234
59 -0.39502847309126
60 0.15048320478913
61 0.0
62 0.0
63 0.10053077351236
64 0.0
65 0.0
66 0.014335471839491
67 0.0
68 0.0
69 0.002073895312069
70 0.0
71 0.0
72 -0.020545615869901
73 0.001045812156235
74 0.001045812156234
75 -0.002091624312468
76 0.0
77 0.0
78 0.0
79 -0.003102495851096
80 -0.003102495851068
81 0.006204991702164
82 0.0
83 0.0
84 0.0
85 0.003640453727933
86 0.003640453727930
87 -0.007280907455863
88 0.0
89 0.0
90 0.0
91 0.0
92 0.0
93 -0.001917675372030
94 0.0
95 0.0
96 0.001286415747190
97 0.0
98 0.0
99 0.001286415747192
100 0.0
101 0.0
102 0.0
103 -0.002125225037039
104 0.0
105 0.0
106 0.001425644295096
107 0.0
108 0.0
109 0.001425644295087
110 0.0
 Sym=      2.1
 Ene=      -0.2164
 Spin= Alpha
 Occup=    2.000000
1 -0.003453922900396
2 0.84088425657854
3 -0.39902639157992
4 -0.088922920738082
5 -0.003531623298588
6 0.0
7 0.0
8 -0.14041676110961
9 0.0
10 0.0
11 0.63725639660976
12 0.0
13 0.0
14 0.20052166825538
15 0.0
16 0.0
17 -0.070808973447418
18 0.010132307353544
19 0.010132307353544
20 -0.020264614707087
21 0.0
22 0.0
23 0.0
24 -0.042047798773416
25 -0.042047798773417
26 0.084095597546834
27 0.0
28 0.0
29 0.0
30 -0.047710091409196
31 -0.047710091409195
32 0.095420182818391
33 0.0
34 0.0
35 0.0
36 0.0
37 0.0
38 -0.011759705171843
39 0.0
40 0.0
41 0.007888650047879
42 0.0
43 0.0
44 0.007888650047879
45 0.0
46 0.0
47 0.0
48 0.022797743458651
49 0.0
50 0.0
51 -0.015293191232144
52 0.0
53 0.0
54 -0.015293191232143
55 0.0
56 -0.003453922900396
57 0.84088425657854
58 -0.39902639157992
59 -0.088922920738082
60 -0.003531623298588
61 0.0
62 0.0
63 0.14041676110961
64 0.0
65 0.0
66 -0.63725639660976
67 0.0
68 0.0
69 -0.20052166825538
70 0.0
71 0.0
72 0.070808973447418
73 0.010132307353544
74 0.010132307353544
75 -0.020264614707087
76 0.0
77 0.0
78 0.0
79 -0.042047798773416
80 -0.042047798773417
81 0.084095597546834
82 0.0
83 0.0
84 0.0
85 -0.047710091409196
86 -0.047710091409195
87 0.095420182818391
88 0.0
89 0.0
90 0.0
91 0.0
92 0.0
93 0.011759705171843
94 0.0
95 0.0
96 -0.007888650047879
97 0.0
98 0.0
99 -0.007888650047879
100 0.0
101 0.0
102 0.0
103 -0.022797743458651
104 0.0
105 0.0
106 0.015293191232144
107 0.0
108 0.0
109 0.015293191232143
110 0.0
 Sym=      1.2
 Ene=      -0.0028
 Spin= Alpha
 Occup=    0.000000
1 0.0
2 0.0
3 0.0
4 0.0
5 0.0
6 0.89347790179990
7 0.0
8 0.0
9 -0.25830078687911
10 0.0
11 0.0
12 -0.25937572537962
13 0.0
14 0.0
15 0.17784695647008
16 0.0
17 0.0
18 0.0
19 0.0
20 0.0
21 0.0
22 0.013248430566774
23 0.0
24 0.0
25 0.0
26 0.0
27 0.0
28 -0.13312447546218
29 0.0
30 0.0
31 0.0
32 0.0
33 0.0
34 0.025910935255701
35 0.0
36 0.002722691568316
37 0.0
38 0.0
39 0.001217624685704
40 0.0
41 0.0
42 -0.004870498742816
43 0.0
44 0.0
45 0.0
46 0.027363508600822
47 0.0
48 0.0
49 0.012237333066867
50 0.0
51 0.0
52 -0.048949332267470
53 0.0
54 0.0
55 0.0
56 0.0
57 0.0
58 0.0
59 0.0
60 0.0
61 0.89347790179990
62 0.0
63 0.0
64 -0.25830078687911
65 0.0
66 0.0
67 -0.25937572537962
68 0.0
69 0.0
70 0.17784695647008
71 0.0
72 0.0
73 0.0
74 0.0
75 0.0
76 0.0
77 -0.013248430566774
78 0.0
79 0.0
80 0.0
81 0.0
82 0.0
83 0.13312447546218
84 0.0
85 0.0
86 0.0
87 0.0
88 0.0
89 -0.025910935255701
90 0.0
91 0.002722691568316
92 0.0
93 0.0
94 0.001217624685704
95 0.0
96 0.0
97 -0.004870498742816
98 0.0
99 0.0
100 0.0
101 0.027363508600822
102 0.0
103 0.0
104 0.012237333066867
105 0.0
106 0.0
107 -0.048949332267470
108 0.0
109 0.0
110 0.0
 Sym=      1.3
 Ene=      -0.0028
 Spin= Alpha
 Occup=    0.000000
1 0.0
2 0.0
3 0.0
4 0.0
5 0.0
6 0.0
7 0.89347790179977
8 0.0
9 0.0
10 -0.25830078687903
11 0.0
12 0.0
13 -0.25937572537956
14 0.0
15 0.0
16 0.17784695647007
17 0.0
18 0.0
19 0.0
20 0.0
21 0.0
22 0.0
23 0.013248430566784
24 0.0
25 0.0
26 0.0
27 0.0
28 0.0
29 -0.13312447546212
30 0.0
31 0.0
32 0.0
33 0.0
34 0.0
35 0.025910935255665
36 0.0
37 0.002722691568303
38 0.0
39 0.0
40 0.001217624685698
41 0.0
42 0.0
43 -0.004870498742792
44 0.0
45 0.0
46 0.0
47 0.027363508600820
48 0.0
49 0.0
50 0.012237333066867
51 0.0
52 0.0
53 -0.048949332267466
54 0.0
55 0.0
56 0.0
57 0.0
58 0.0
59 0.0
60 0.0
61 0.0
62 0.89347790179977
63 0.0
64 0.0
65 -0.25830078687903
66 0.0
67 0.0
68 -0.25937572537956
69 0.0
70 0.0
71 0.17784695647007
72 0.0
73 0.0
74 0.0
75 0.0
76 0.0
77 0.0
78 -0.013248430566784
79 0.0
80 0.0
81 0.0
82 0.0
83 0.0
84 0.13312447546212
85 0.0
86 0.0
87 0.0
88 0.0
89 0.0
90 -0.025910935255665
91 0.0
92 0.002722691568303
93 0.0
94 0.0
95 0.001217624685698
96 0.0
97 0.0
98 -0.004870498742792
99 0.0
100 0.0
101 0.0
102 0.027363508600820
103 0.0
104 0.0
105 0.012237333066867
106 0.0
107 0.0
108 -0.048949332267466
109 0.0
110 0.0
 Sym=      2.5
 Ene=       0.0072
 Spin= Alpha
 Occup=    0.000000
1 -0.004427778387940
2 -0.23028744824808
3 0.99478694623366
4 6.01386372726467
5 -32.8436129578617
6 0.0
7 0.0
8 0.21048537897782
9 0.0
10 0.0
11 0.43212122190082
12 0.0
13 0.0
14 1.30081034484167
15 0.0
16 0.0
17 -2.99544867997001
18 -0.001723741017435
19 -0.001723741017435
20 0.003447482034869
21 0.0
22 0.0
23 0.0
24 -0.041080594577124
25 -0.041080594577124
26 0.082161189154248
27 0.0
28 0.0
29 0.0
30 -0.024330851158297
31 -0.024330851158297
32 0.048661702316593
33 0.0
34 0.0
35 0.0
36 0.0
37 0.0
38 -0.001274689615128
39 0.0
40 0.0
41 0.000855087788892
42 0.0
43 0.0
44 0.000855087788892
45 0.0
46 0.0
47 0.0
48 0.029164458498593
49 0.0
50 0.0
51 -0.019564113518947
52 0.0
53 0.0
54 -0.019564113518948
55 0.0
56 0.004427778387940
57 0.23028744824808
58 -0.99478694623366
59 -6.01386372726467
60 32.8436129578617
61 0.0
62 0.0
63 0.21048537897782
64 0.0
65 0.0
66 0.43212122190082
67 0.0
68 0.0
69 1.30081034484167
70 0.0
71 0.0
72 -2.99544867997001
73 0.001723741017435
74 0.001723741017435
75 -0.003447482034869
76 0.0
77 0.0
78 0.0
79 0.041080594577124
80 0.041080594577124
81 -0.082161189154248
82 0.0
83 0.0
84 0.0
85 0.024330851158297
86 0.024330851158297
87 -0.048661702316593
88 0.0
89 0.0
90 0.0
91 0.0
92 0.0
93 -0.001274689615128
94 0.0
95 0.0
96 0.000855087788892
97 0.0
98 0.0
99 0.000855087788892
100 0.0
101 0.0
102 0.0
103 0.029164458498593
104 0.0
105 0.0
106 -0.019564113518947
107 0.0
108 0.0
109 -0.019564113518948
110 0.0
 Sym=      3.1
 Ene=       0.0139
 Spin= Alpha
 Occup=    0.000000
1 0.006372112162365
2 -0.099893954496290
3 -0.26599061975085
4 -0.28665263474788
5 0.83307891401715
6 0.0
7 0.0
8 0.003530110433803
9 0.0
10 0.0
11 0.39995879530673
12 0.0
13 0.0
14 1.68530633708931
15 0.0
16 0.0
17 -2.58044395638940
18 -0.010413479104694
19 -0.010413479104694
20 0.020826958209388
21 0.0
22 0.0
23 0.0
24 0.025573785357893
25 0.025573785357893
26 -0.051147570715785
27 0.0
28 0.0
29 0.0
30 -0.15085654341241
31 -0.15085654341241
32 0.30171308682481
33 0.0
34 0.0
35 0.0
36 0.0
37 0.0
38 -0.002980929783934
39 0.0
40 0.0
41 0.001999668489909
42 0.0
43 0.0
44 0.001999668489909
45 0.0
46 0.0
47 0.0
48 0.018455399592016
49 0.0
50 0.0
51 -0.012380258411901
52 0.0
53 0.0
54 -0.012380258411901
55 0.0
56 0.006372112162365
57 -0.099893954496290
58 -0.26599061975085
59 -0.28665263474788
60 0.83307891401715
61 0.0
62 0.0
63 -0.003530110433803
64 0.0
65 0.0
66 -0.39995879530673
67 0.0
68 0.0
69 -1.68530633708931
70 0.0
71 0.0
72 2.58044395638940
73 -0.010413479104694
74 -0.010413479104694
75 0.020826958209388
76 0.0
77 0.0
78 0.0
79 0.025573785357893
80 0.025573785357893
81 -0.051147570715785
82 0.0
83 0.0
84 0.0
85 -0.15085654341241
86 -0.15085654341241
87 0.30171308682481
88 0.0
89 0.0
90 0.0
91 0.0
92 0.0
93 0.002980929783934
94 0.0
95 0.0
96 -0.001999668489909
97 0.0
98 0.0
99 -0.001999668489909
100 0.0
101 0.0
102 0.0
103 -0.018455399592016
104 0.0
105 0.0
106 0.012380258411901
107 0.0
108 0.0
109 0.012380258411901
110 0.0
 Sym=      3.5
 Ene=       0.0196
 Spin= Alpha
 Occup=    0.000000
1 -0.002349591615979
2 -0.28814188854720
3 -2.12417646545332
4 -13.8281547060544
5 65.1427903095545
6 0.0
7 0.0
8 0.16374428293538
9 0.0
10 0.0
11 -1.07952598966743
12 0.0
13 0.0
14 -2.92940691043590
15 0.0
16 0.0
17 6.71573204423081
18 0.002314704065840
19 0.002314704065841
20 -0.004629408131681
21 0.0
22 0.0
23 0.0
24 0.087861167282250
25 0.087861167282255
26 -0.17572233456451
27 0.0
28 0.0
29 0.0
30 0.069979540957338
31 0.069979540957332
32 -0.13995908191467
33 0.0
34 0.0
35 0.0
36 0.0
37 0.0
38 0.004750434985635
39 0.0
40 0.0
41 -0.003186688665172
42 0.0
43 0.0
44 -0.003186688665171
45 0.0
46 0.0
47 0.0
48 -0.067039054544643
49 0.0
50 0.0
51 0.044971164932742
52 0.0
53 0.0
54 0.044971164932742
55 0.0
56 0.002349591615979
57 0.28814188854720
58 2.12417646545332
59 13.8281547060544
60 -65.1427903095545
61 0.0
62 0.0
63 0.16374428293538
64 0.0
65 0.0
66 -1.07952598966743
67 0.0
68 0.0
69 -2.92940691043590
70 0.0
71 0.0
72 6.71573204423081
73 -0.002314704065840
74 -0.002314704065841
75 0.004629408131681
76 0.0
77 0.0
78 0.0
79 -0.087861167282250
80 -0.087861167282255
81 0.17572233456451
82 0.0
83 0.0
84 0.0
85 -0.069979540957338
86 -0.069979540957332
87 0.13995908191467
88 0.0
89 0.0
90 0.0
91 0.0
92 0.0
93 0.004750434985635
94 0.0
95 0.0
96 -0.003186688665172
97 0.0
98 0.0
99 -0.003186688665171
100 0.0
101 0.0
102 0.0
103 -0.067039054544643
104 0.0
105 0.0
106 0.044971164932742
107 0.0
108 0.0
109 0.044971164932742
110 0.0
 Sym=      2.2
 Ene=       0.0257
 Spin= Alpha
 Occup=    0.000000
1 0.0
2 0.0
3 0.0
4 0.0
5 0.0
6 -0.49503182202337
7 0.0
8 0.0
9 0.34167628188056
10 0.0
11 0.0
12 -0.44533774264498
13 0.0
14 0.0
15 0.83394850678154
16 0.0
17 0.0
18 0.0
19 0.0
20 0.0
21 0.0
22 0.006291227736872
23 0.0
24 0.0
25 0.0
26 0.0
27 0.0
28 -0.10290611005195
29 0.0
30 0.0
31 0.0
32 0.0
33 0.0
34 -0.070545690661519
35 0.0
36 -0.023061428993446
37 0.0
38 0.0
39 -0.010313384577526
40 0.0
41 0.0
42 0.041253538310104
43 0.0
44 0.0
45 0.0
46 0.049364956050193
47 0.0
48 0.0
49 0.022076679486904
50 0.0
51 0.0
52 -0.088306717947618
53 0.0
54 0.0
55 0.0
56 0.0
57 0.0
58 0.0
59 0.0
60 0.0
61 -0.49503182202337
62 0.0
63 0.0
64 0.34167628188056
65 0.0
66 0.0
67 -0.44533774264498
68 0.0
69 0.0
70 0.83394850678154
71 0.0
72 0.0
73 0.0
74 0.0
75 0.0
76 0.0
77 -0.006291227736872
78 0.0
79 0.0
80 0.0
81 0.0
82 0.0
83 0.10290611005195
84 0.0
85 0.0
86 0.0
87 0.0
88 0.0
89 0.070545690661519
90 0.0
91 -0.023061428993446
92 0.0
93 0.0
94 -0.010313384577526
95 0.0
96 0.0
97 0.041253538310104
98 0.0
99 0.0
100 0.0
101 0.049364956050193
102 0.0
103 0.0
104 0.022076679486904
105 0.0
106 0.0
107 -0.088306717947618
108 0.0
109 0.0
110 0.0
 Sym=      2.3
 Ene=       0.0257
 Spin= Alpha
 Occup=    0.000000
1 0.0
2 0.0
3 0.0
4 0.0
5 0.0
6 0.0
7 -0.49503182202339
8 0.0
9 0.0
10 0.34167628188058
11 0.0
12 0.0
13 -0.44533774264498
14 0.0
15 0.0
16 0.83394850678154
17 0.0
18 0.0
19 0.0
20 0.0
21 0.0
22 0.0
23 0.006291227736875
24 0.0
25 0.0
26 0.0
27 0.0
28 0.0
29 -0.10290611005195
30 0.0
31 0.0
32 0.0
33 0.0
34 0.0
35 -0.070545690661551
36 0.0
37 -0.023061428993454
38 0.0
39 0.0
40 -0.010313384577530
41 0.0
42 0.0
43 0.041253538310118
44 0.0
45 0.0
46 0.0
47 0.049364956050203
48 0.0
49 0.0
50 0.022076679486909
51 0.0
52 0.0
53 -0.088306717947635
54 0.0
55 0.0
56 0.0
57 0.0
58 0.0
59 0.0
60 0.0
61 0.0
62 -0.49503182202339
63 0.0
64 0.0
65 0.34167628188058
66 0.0
67 0.0
68 -0.44533774264498
69 0.0
70 0.0
71 0.83394850678154
72 0.0
73 0.0
74 0.0
75 0.0
76 0.0
77 0.0
78 -0.006291227736875
79 0.0
80 0.0
81 0.0
82 0.0
83 0.0
84 0.10290611005195
85 0.0
86 0.0
87 0.0
88 0.0
89 0.0
90 0.070545690661551
91 0.0
92 -0.023061428993454
93 0.0
94 0.0
95 -0.010313384577530
96 0.0
97 0.0
98 0.041253538310118
99 0.0
100 0.0
101 0.0
102 0.049364956050203
103 0.0
104 0.0
105 0.022076679486909
106 0.0
107 0.0
108 -0.088306717947635
109 0.0
110 0.0
 Sym=      1.6
 Ene=       0.0258
 Spin= Alpha
 Occup=    0.000000
1 0.0
2 0.0
3 0.0
4 0.0
5 0.0
6 0.062857048012139
7 0.0
8 0.0
9 -5.01947274542483
10 0.0
11 0.0
12 -4.29431161049560
13 0.0
14 0.0
15 8.01417155779990
16 0.0
17 0.0
18 0.0
19 0.0
20 0.0
21 0.0
22 0.016183164440246
23 0.0
24 0.0
25 0.0
26 0.0
27 0.0
28 -0.45252842730682
29 0.0
30 0.0
31 0.0
32 0.0
33 0.0
34 -1.09202431763986
35 0.0
36 -0.025487885708480
37 0.0
38 0.0
39 -0.011398529009381
40 0.0
41 0.0
42 0.045594116037525
43 0.0
44 0.0
45 0.0
46 0.083147544540555
47 0.0
48 0.0
49 0.037184712350974
50 0.0
51 0.0
52 -0.14873884940390
53 0.0
54 0.0
55 0.0
56 0.0
57 0.0
58 0.0
59 0.0
60 0.0
61 -0.062857048012139
62 0.0
63 0.0
64 5.01947274542483
65 0.0
66 0.0
67 4.29431161049560
68 0.0
69 0.0
70 -8.01417155779990
71 0.0
72 0.0
73 0.0
74 0.0