[Molden Format]
[Molpro variables]
_NUMVAR=  893.0000000000000    
_AVOGAD= 0.6022136736000000E+24
_BOLTZ= 0.1380658000000000E-22
_CLIGHT=  29979245800.00000    
_EV= 0.3674932379085202E-01
_ENULL= 0.8854187817000000E-11
_KJOULE= 0.3808798324128737E-03
_KJOULE/MOL= 0.3808798324128737E-03
_CM= 0.4556335267302901E-05
_CM-1= 0.4556335267302901E-05
_DEB2SI= 0.3335641000000000E-29
_AMU2AU=  1822.888390000000    
_KCAL= 0.1593601117815568E-02
_KCAL/MOL= 0.1593601117815568E-02
_KELVIN= 0.3166811411060229E-05
_JOULE= 0.4359748200000000E-17
_HERTZ= 0.1519829846004524E-15
_HZ= 0.1519829846004524E-15
_JPCAL=  4.184000000000000    
_PLANCK= 0.6626075540000000E-33
_TOA= 0.5291772109200000    
_TOANG= 0.5291772109200000    
_TORAD= 0.1745329251994330E-01
_TOCM=  219474.6306700000    
_TODEBYE=  2.541580000000000    
_TOE= 0.4803242000000000E-09
_TOEV=  27.21138505000000    
_TOHERTZ=  6579683920729000.    
_TOHZ=  6579683920729000.    
_TOK=  315775.0400000000    
_TOKCAL=  627.5096000000000    
_TOKELVIN=  315775.0400000000    
_TOKJ=  2625.500000000000    
_TOKJOULE=  2625.500000000000    
_TOKG= 0.1660565586000000E-26
_ANG=  1.889726124565062    
_ANGSTROM=  1.889726124565062    
_RPAREF=  0.000000000000000    
_RPADISS=  0.000000000000000    
_IGNORE_UNDEF=  2.000000000000000    
_STRICTCHECK=  0.000000000000000    
_SEW_ONEEL=  0.000000000000000    
_CPPDONE=FALSE
_DKROLL_DONE=  0.000000000000000    
_FOCKDONE=TRUE
_GRADONE=FALSE
_HESSDONE=FALSE
_INTDONE=TRUE
_SCFDONE=TRUE
_MODUL_BLOCK=FALSE
_MODUL_CUDA=FALSE
_MODUL_SLATER=FALSE
_MODUL_MRCC=FALSE
_MODUL_NBO6=FALSE
_MODUL_NECI=TRUE
_MODUL_AIMS=TRUE
_MRCC_EXEC=
_FITC_AO_SAVED=FALSE
_FITC_MO_SAVED=FALSE
_SHARED_FS=TRUE
_LSTYP=SEWARD
_INTYP=INTS
_GEOMTYP=ZMAT
_GRADTYP=ALASKA
_DIRECT=FALSE
_DKHO= -1.000000000000000    
_SYNCM=  0.000000000000000    
_BASIS=AUG-CC-PVTZ
_ZORIENT=  1.000000000000000    
_NELEC=  4.000000000000000    
!SPIN=  0.000000000000000    
_QSDSTEP=  0.000000000000000    
_QSDIRC=  0.000000000000000    
_PROGRAM=RHF-SCF
_CPUSTEP= 0.2000000000000002E-01
_SYSSTEP= 0.4999999999999993E-01
_WALLSTEP= 0.2200000000000000    
!DFSCF=  0.000000000000000    
!SCSGRD=  0.000000000000000    
_BASINP=  610.0000000000000    
_CPUTOT= 0.8200000000000001    
_CPUSORT= 0.1799999999999999    
_SYSSORT= 0.4000000000000004E-01
_WALLSORT= 0.2899999991059303    
_DFTEXFAC=  1.000000000000000    
_DMX=  0.000000000000000    
_DMY=  0.000000000000000    
_DMZ= -2.365296268558694    
_DMX_SCF=  0.000000000000000    
_DMY_SCF=  0.000000000000000    
_DMZ_SCF= -2.365296268558694    
_EHOMO=-0.3013453622263725    
_ELUMO=-0.7338847549959885E-02
_EIGS= -2.446398928216897    
_ENERGY= -7.986799339125243    
_ENERGY_METHOD=RHF
_ENERGY_BASIS=aug-cc-pVTZ
_GEOMETRY_METHOD=
_GEOMETRY_BASIS=
_ENUC= 0.9933774834437086    
_GRADEXFAC=  9999.000000000000    
_GRADMETHOD=  1.000000000000000    
_NMRMETHOD=  0.000000000000000    
_NMRMAGNET=  0.000000000000000    
!GRID_FREEZE= -1.000000000000000    
_ITERATIONS=  8.000000000000000    
_LASTNELEC=  4.000000000000000    
_LASTSPIN=  0.000000000000000    
_LASTSYM=  1.000000000000000    
_MPP_PROG=  1.000000000000000    
_MSNSTATES=  0.000000000000000    
_RS2PHASE=  0.000000000000000    
_NPROC_MPP=  31.00000000000000    
_NPROC_MPPX=  31.00000000000000    
_NPROC_SMP=  1.000000000000000    
_NUMSTEP=  0.000000000000000    
_ORBITAL=  2100.200000000000    
_PI=  3.141592653589793    
_SEIG_MIN= 0.5869661832377163E-03
_SEWPROP=TRUE
_STATUS=  1.000000000000000    
_SYSTOT= 0.2800000000000000    
_VERSION=  2015001.000000000    
_WALLTOT=  12.10000000000000    
_DATE=11-Apr-20
_LASTORB=RHF
_MACHINE= 64 bit mpp version
_OUTPUT=/global/cscratch1/sd/rbello/Quantum_Chem/molpro.xml
_PGROUP=C2v
_TIME=14:37:20
_LIBMOL=/global/common/cori/software/molpro/2015/molprop_2015_1_linux_x86_64_i8/lib/
_VIGRDC=  0.000000000000000    
!VIBCNT=  0.000000000000000    
!RGHFCNT=  0.000000000000000    
!SURFREC=  0.000000000000000    
!ROTREC=  0.000000000000000    
!POLYREC=  0.000000000000000    
!DIPREC=  0.000000000000000    
!DIP4DREC=  0.000000000000000    
!DIPROT=  0.000000000000000    
!DIP4DROT=  0.000000000000000    
!PTREC=  0.000000000000000    
!PT4DREC=  0.000000000000000    
!VSCFREC=  0.000000000000000    
!VCIREC=  0.000000000000000    
!PVCIREC=  0.000000000000000    
!VMP2REC=  0.000000000000000    
!VMCSCFREC=  0.000000000000000    
!VMRCIREC=  0.000000000000000    
!VIBSTATEREC=  0.000000000000000    
!VIBSTATECNT=  0.000000000000000    
!VIBINFO=  0.000000000000000    
!GAREC=  0.000000000000000    
!SCFORB=  21002.00000000000    
!NEWMOL= -1.000000000000000    
!NEWSYM= -1.000000000000000    
_SLFILES=slscratch
_NGSSTO=  9.000000000000000    
_SIN=SIN
_COS=COS
_TAN=TAN
_ACOS=ACOS
_ASIN=ASIN
_ATAN=ATAN
_COSH=COSH
_SINH=SINH
_TANH=TANH
_ABS=ABS
_MOD=MOD
_ERF=ERF
_REFC=REFC
_ERFC=ERFC
_HYPOT=HYPOT
_J0=J0
_J1=J1
_JN=JN
_GAMMA=GAMMA
_LGAMMA=LGAMMA
_Y0=Y0
_Y1=Y1
_YN=YN
_EXP=EXP
_LOG=LOG
_LOG10=LOG10
_SQRT=SQRT
_INT=INT
_NINT=NINT
_MAX=MAX
_MIN=MIN
_COSMO=  0.000000000000000    
_COSMOIT=  0.000000000000000    
_COSMOES=  0.000000000000000    
_COSMOEDS=  0.000000000000000    
_COSMOEC=  0.000000000000000    
_COSMOEDCORR=  0.000000000000000    
_FEPSI=  1.000000000000000    
_SL_IsMM=  0.000000000000000    
_SL_NSYM=  4.000000000000000    
_SL_System_BitSw=  0.000000000000000    
_SL_Unique_atoms=  0.000000000000000    
_SL_GRAD=  0.000000000000000    
_SL_MAXUPD_Hess=  5.000000000000000    
_SL_N_PRINT_COD=  5.000000000000000    
_SL_PRINT_CODES=  0.000000000000000    
_SL_BasType=  0.000000000000000    
_SL_Energy_Pred=  0.000000000000000    
_SL_New_Coords=  0.000000000000000    
_SL_Total_Nuclea=  0.000000000000000    
_SL_Highest_Mltp=  0.000000000000000    
_SL_Ref_Geom=  0.000000000000000    
_SL_Symmetry_ope=  1.000000000000000    
_SL_agrad=  0.000000000000000    
_SL_GrdMax=  0.000000000000000    
_SL_GrdNorm=  0.000000000000000    
_SL_GrdRMS=  0.000000000000000    
_SL_Hss_Q=  0.000000000000000    
_SL_Hss_X=  0.000000000000000    
_SL_BMxOld=  0.000000000000000    
_SL_KtB=  0.000000000000000    
_SL_TROld=  0.000000000000000    
_SL_No_of_Intern=  0.000000000000000    
_SL_Hess=  0.000000000000000    
_SL_K=  0.000000000000000    
!LATTICE= -1.000000000000000    
!NEWLATTICE=  0.000000000000000    
!LATGRAD_VAR=FALSE
!SEW_LATTICE=  1.000000000000000    
!LOCAL=  0.000000000000000    
!SAVEDOM= -1.000000000000000    
!RESTDOM= -1.000000000000000    
!SAVEDOM_HF= -1.000000000000000    
!RESTDOM_HF= -1.000000000000000    
!HESSREC=  0.000000000000000    
!FREQREC=  0.000000000000000    
!NMODREC=  0.000000000000000    
!GTASKS=  0.000000000000000    
!HTASKS=  0.000000000000000    
!SAVEDOM_EOM= -1.000000000000000    
!RESTDOM_EOM= -1.000000000000000    
!GRADSTATE= -1.000000000000000    
!THRCHG= 0.1000000000000000    
!DEBUG= -1.000000000000000    
!CFIT_CPHF=  0.000000000000000    
!RDOMAUX_CPHF=  3.000000000000000    
!THRAO_CPHF= 0.1000000000000000E-09
!THRMO_CPHF= 0.1000000000000000E-08
!THROV_CPHF= 0.1000000000000000E-11
!THRSW_CPHF= 0.1000000000000000E-09
!THRPROD_CPHF= 0.1000000000000000E-08
!THRAOPR_CPHF= 0.1000000000000000E-11
!CFIT_SCFGRD=  0.000000000000000    
!RDOMAUX_SCFGRD=  5.000000000000000    
!THRAO_SCFGRD= 0.1000000000000000E-09
!THRMO_SCFGRD= 0.1000000000000000E-08
!THROV_SCFGRD= 0.1000000000000000E-11
!THRSW_SCFGRD= 0.1000000000000000E-09
!THRPROD_SCFGRD= 0.1000000000000000E-08
!THRAOPR_SCFGRD= 0.1000000000000000E-11
!LOCFIT_SCF=  0.000000000000000    
!LOCFIT_MP2= -1.000000000000000    
_RIDOM=  0.000000000000000    
!CC2_METHOD=  0.000000000000000    
_BASIS2006=FALSE
_SVDDEL= -1.000000000000000    
_SVDDELA= -1.000000000000000    
_SVDDELP= -1.000000000000000    
_SVDDELF= -1.000000000000000    
_SVDDELS= -1.000000000000000    
_SVDDEL_ABS= -1.000000000000000    
_SVDDELA_ABS= -1.000000000000000    
_SVDDELP_ABS= -1.000000000000000    
_SVDDELF_ABS= -1.000000000000000    
_SVDDELS_ABS= -1.000000000000000    
_MAXBASIS=  0.000000000000000    
!OPT_CONICAL=  0.000000000000000    
!CLEARSP_JGRID=  0.000000000000000    
_GRDHYBR=  0.000000000000000    
_STATEGRAD=  1.000000000000000    
_4EXT_NDISKS=  1.000000000000000    
!ZMP=  0.000000000000000    
_MAXIT_ZMP=  500.0000000000000    
_MAXDIS_ZMP=  100.0000000000000    
_ACCU_ZMP=  14.00000000000000    
_SHIFTA_ZMP= -100.0000000000000    
!EMBEDFLAG=  1.000000000000000    
!EMBED=FALSE
!EMBED_F12=FALSE
!EMBEDNUC=  0.000000000000000    
_EMBEDENERGY=  0.000000000000000    
_KSPACETIME=  0.000000000000000    
_RSPACETIME=  0.000000000000000    
!EMBED_DFC=FALSE
!NUM_VOIDS=  0.000000000000000    
_IBODY=  0.000000000000000    
_EMBE_TOTAL=  0.000000000000000    
_EMBE_HF=  0.000000000000000    
_EMBE_CORR=  0.000000000000000    
!EMBED_PROJ=FALSE
!EMBED_TRUNC=  0.000000000000000    
!EMB_PROJ_ZMU=  1000000.000000000    
!CORRECTION=  0.000000000000000    
!CORRECTION_HF=  0.000000000000000    
!EMBED_ENERGY=  0.000000000000000    
!EMBED_NAXC=FALSE
!EMBED_AORB=  0.000000000000000    
!EMBED_NACORR=  0.000000000000000    
!EMBED_MP2=FALSE
!EMBED_TRUNC_PERTURBATION=FALSE
!EMBED_FROZEN=  0.000000000000000    
_CHANGE_BASIS=FALSE
_RESTORE_BASIS=FALSE
_FIX_EMBED_GUESS=FALSE
!EDFT=  0.000000000000000    
_IFASTLATGRAD=  0.000000000000000    
_SINDEX=  0.000000000000000    
_AVDOM_OSV=  0.000000000000000    
_AVDOM_PNO=  0.000000000000000    
_AVDOM_PAO=  0.000000000000000    
_AVDOM_LMO=  0.000000000000000    
_CC2OSV_FLAG=  0.000000000000000    
_TMADC2_FLAG=FALSE
_PROPADC2_FLAG=FALSE
_LEN_VirQ=  0.000000000000000    
_GRDCC2LR_FLAG=FALSE
_GRDADC2_FLAG=FALSE
R=  3.020000000000000    
ACCU=  13.00000000000000    
NITORT=  1.000000000000000    
GX1=  0.000000000000000    
GY1=  0.000000000000000    
GZ1=  0.000000000000000    
GX2=  0.000000000000000    
GY2=  0.000000000000000    
GZ2=  3.020000000000000    
[Atoms] Angs
LI    1    3         0.0000000000        0.0000000000        0.0000000000
H     2    1         0.0000000000        0.0000000000        1.5981151770
[GTO]
   1 0
 s   11  1.00
  0.5988000000D+04  0.1329999901D-03
  0.8989000000D+03  0.1024999924D-02
  0.2059000000D+03  0.5271999607D-02
  0.5924000000D+02  0.2092899844D-01
  0.1987000000D+02  0.6633999506D-01
  0.7406000000D+01  0.1657749877D+00
  0.2930000000D+01  0.3150379765D+00
  0.1189000000D+01  0.3935229707D+00
  0.4798000000D+00  0.1908699858D+00
  0.7509000000D-01  0.5413999597D-02
  0.2832000000D-01 -0.1327999901D-02
 s   11  1.00
  0.5988000000D+04 -0.2100000605D-04
  0.8989000000D+03 -0.1610000464D-03
  0.2059000000D+03 -0.8200002362D-03
  0.5924000000D+02 -0.3326000958D-02
  0.1987000000D+02 -0.1051900303D-01
  0.7406000000D+01 -0.2809700809D-01
  0.2930000000D+01 -0.5593601611D-01
  0.1189000000D+01 -0.9923702859D-01
  0.4798000000D+00 -0.1121890323D+00
  0.7509000000D-01  0.5678891636D+00
  0.2832000000D-01  0.5303821528D+00
 s   11  1.00
  0.5988000000D+04  0.0000000000D+00
  0.8989000000D+03  0.0000000000D+00
  0.2059000000D+03  0.0000000000D+00
  0.5924000000D+02  0.0000000000D+00
  0.1987000000D+02  0.0000000000D+00
  0.7406000000D+01  0.0000000000D+00
  0.2930000000D+01  0.0000000000D+00
  0.1189000000D+01  0.0000000000D+00
  0.4798000000D+00  0.0000000000D+00
  0.7509000000D-01  0.1000000000D+01
  0.2832000000D-01  0.0000000000D+00
 s   11  1.00
  0.5988000000D+04  0.0000000000D+00
  0.8989000000D+03  0.0000000000D+00
  0.2059000000D+03  0.0000000000D+00
  0.5924000000D+02  0.0000000000D+00
  0.1987000000D+02  0.0000000000D+00
  0.7406000000D+01  0.0000000000D+00
  0.2930000000D+01  0.0000000000D+00
  0.1189000000D+01  0.0000000000D+00
  0.4798000000D+00  0.0000000000D+00
  0.7509000000D-01  0.0000000000D+00
  0.2832000000D-01  0.1000000000D+01
 s    1  1.00
  0.7600000000D-02  0.1000000000D+01
 p    5  1.00
  0.3266000000D+01  0.8630004765D-02
  0.6511000000D+00  0.4753802625D-01
  0.1696000000D+00  0.2097721158D+00
  0.5578000000D-01  0.5285222918D+00
  0.2050000000D-01  0.3827442113D+00
 p    5  1.00
  0.3266000000D+01  0.0000000000D+00
  0.6511000000D+00  0.0000000000D+00
  0.1696000000D+00  0.0000000000D+00
  0.5578000000D-01  0.1000000000D+01
  0.2050000000D-01  0.0000000000D+00
 p    5  1.00
  0.3266000000D+01  0.0000000000D+00
  0.6511000000D+00  0.0000000000D+00
  0.1696000000D+00  0.0000000000D+00
  0.5578000000D-01  0.0000000000D+00
  0.2050000000D-01  0.1000000000D+01
 p    1  1.00
  0.9100000000D-02  0.1000000000D+01
 d    1  1.00
  0.1900000000D+00  0.1000000000D+01
 d    1  1.00
  0.7250000000D-01  0.1000000000D+01
 d    1  1.00
  0.4280000000D-01  0.1000000000D+01
 f    1  1.00
  0.1270000000D+00  0.1000000000D+01
 f    1  1.00
  0.8120000000D-01  0.1000000000D+01
  
   2 0
 s    5  1.00
  0.3387000000D+02  0.6067999217D-02
  0.5095000000D+01  0.4530799416D-01
  0.1159000000D+01  0.2028219738D+00
  0.3258000000D+00  0.5039029350D+00
  0.1027000000D+00  0.3834209505D+00
 s    5  1.00
  0.3387000000D+02  0.0000000000D+00
  0.5095000000D+01  0.0000000000D+00
  0.1159000000D+01  0.0000000000D+00
  0.3258000000D+00  0.1000000000D+01
  0.1027000000D+00  0.0000000000D+00
 s    5  1.00
  0.3387000000D+02  0.0000000000D+00
  0.5095000000D+01  0.0000000000D+00
  0.1159000000D+01  0.0000000000D+00
  0.3258000000D+00  0.0000000000D+00
  0.1027000000D+00  0.1000000000D+01
 s    1  1.00
  0.2526000000D-01  0.1000000000D+01
 p    1  1.00
  0.1407000000D+01  0.1000000000D+01
 p    1  1.00
  0.3880000000D+00  0.1000000000D+01
 p    1  1.00
  0.1020000000D+00  0.1000000000D+01
 d    1  1.00
  0.1057000000D+01  0.1000000000D+01
 d    1  1.00
  0.2470000000D+00  0.1000000000D+01
 
 
[MO]
 Sym=      1.1
 Ene=      -2.4464
 Spin= Alpha
 Occup=    2.000000
1 0.99833666874419
2 -0.003896104298770
3 -0.052189565780184
4 0.013161602935720
5 -0.000230909937290
6 0.0
7 0.0
8 -0.11460820408469
9 0.0
10 0.0
11 0.041594614062372
12 0.0
13 0.0
14 0.052562756433601
15 0.0
16 0.0
17 -0.002391582390233
18 0.004027914459972
19 0.004027914459972
20 -0.008055828919944
21 0.0
22 0.0
23 0.0
24 0.004436435373698
25 0.004436435373698
26 -0.008872870747396
27 0.0
28 0.0
29 0.0
30 -0.001837204957137
31 -0.001837204957137
32 0.003674409914275
33 0.0
34 0.0
35 0.0
36 0.0
37 0.0
38 -0.005239437001623
39 0.0
40 0.0
41 0.003514721189837
42 0.0
43 0.0
44 0.003514721189837
45 0.0
46 0.0
47 0.0
48 0.002470997395932
49 0.0
50 0.0
51 -0.001657595444859
52 0.0
53 0.0
54 -0.001657595444858
55 0.0
56 0.003097454846012
57 0.007175796334522
58 0.051696976086713
59 -0.004939702067525
60 0.0
61 0.0
62 0.000489311010227
63 0.0
64 0.0
65 -0.007180436628038
66 0.0
67 0.0
68 -0.018464239867576
69 -0.000154605418867
70 -0.000154605418867
71 0.000309210837734
72 0.0
73 0.0
74 0.0
75 -0.001189775170769
76 -0.001189775170769
77 0.002379550341537
78 0.0
79 0.0
80 0.0
 Sym=      2.1
 Ene=      -0.3013
 Spin= Alpha
 Occup=    2.000000
1 -0.017360407461353
2 0.60038254715910
3 -0.045891274830050
4 -0.28088364976840
5 -0.007537037114000
6 0.0
7 0.0
8 0.61437220953636
9 0.0
10 0.0
11 -0.20793683902516
12 0.0
13 0.0
14 -0.25067262808593
15 0.0
16 0.0
17 0.002261701943990
18 -0.013977328624516
19 -0.013977328624515
20 0.027954657249031
21 0.0
22 0.0
23 0.0
24 -0.013927160075726
25 -0.013927160075728
26 0.027854320151454
27 0.0
28 0.0
29 0.0
30 0.000574287875052
31 0.000574287875054
32 -0.001148575750107
33 0.0
34 0.0
35 0.0
36 0.0
37 0.0
38 0.014814511960987
39 0.0
40 0.0
41 -0.009937876739476
42 0.0
43 0.0
44 -0.009937876739475
45 0.0
46 0.0
47 0.0
48 -0.002729020267491
49 0.0
50 0.0
51 0.001830682449026
52 0.0
53 0.0
54 0.001830682449025
55 0.0
56 0.70705617930988
57 -0.064446652497896
58 -0.013833371665813
59 0.064657057097560
60 0.0
61 0.0
62 -0.002917498441011
63 0.0
64 0.0
65 -0.012107215540318
66 0.0
67 0.0
68 0.001110072896310
69 -0.000779164554465
70 -0.000779164554465
71 0.001558329108930
72 0.0
73 0.0
74 0.0
75 -0.003114503097273
76 -0.003114503097273
77 0.006229006194545
78 0.0
79 0.0
80 0.0
 Sym=      3.1
 Ene=      -0.0073
 Spin= Alpha
 Occup=    0.000000
1 -0.002283608206003
2 0.26183415345272
3 -0.14469923968377
4 -0.11366922692792
5 0.62408482966805
6 0.0
7 0.0
8 -0.29697699991654
9 0.0
10 0.0
11 -0.095952293410289
12 0.0
13 0.0
14 -0.079634653235984
15 0.0
16 0.0
17 -0.33795425636299
18 -0.003621662500924
19 -0.003621662500924
20 0.007243325001849
21 0.0
22 0.0
23 0.0
24 0.025666575505888
25 0.025666575505888
26 -0.051333151011775
27 0.0
28 0.0
29 0.0
30 -0.031529804057651
31 -0.031529804057651
32 0.063059608115302
33 0.0
34 0.0
35 0.0
36 0.0
37 0.0
38 0.003663433948272
39 0.0
40 0.0
41 -0.002457506201825
42 0.0
43 0.0
44 -0.002457506201825
45 0.0
46 0.0
47 0.0
48 -0.015860953258770
49 0.0
50 0.0
51 0.010639850902367
52 0.0
53 0.0
54 0.010639850902367
55 0.0
56 -0.097271371357816
57 -0.001394480372002
58 0.099352363817233
59 0.12957182981972
60 0.0
61 0.0
62 0.000103876887820
63 0.0
64 0.0
65 0.002051675100076
66 0.0
67 0.0
68 -0.016916440200762
69 0.000111149871948
70 0.000111149871948
71 -0.000222299743897
72 0.0
73 0.0
74 0.0
75 0.000812395815098
76 0.000812395815098
77 -0.001624791630196
78 0.0
79 0.0
80 0.0
 Sym=      1.2
 Ene=       0.0163
 Spin= Alpha
 Occup=    0.000000
1 0.0
2 0.0
3 0.0
4 0.0
5 0.0
6 0.073100364937012
7 0.0
8 0.0
9 0.15547147708562
10 0.0
11 0.0
12 -0.45026845556677
13 0.0
14 0.0
15 1.25928855370892
16 0.0
17 0.0
18 0.0
19 0.0
20 0.0
21 0.0
22 -0.009020723428816
23 0.0
24 0.0
25 0.0
26 0.0
27 0.0
28 0.10053320405049
29 0.0
30 0.0
31 0.0
32 0.0
33 0.0
34 -0.15257831850919
35 0.0
36 -0.001738222232482
37 0.0
38 0.0
39 -0.000777356614366
40 0.0
41 0.0
42 0.003109426457464
43 0.0
44 0.0
45 0.0
46 -0.012047407994876
47 0.0
48 0.0
49 -0.005387764645843
50 0.0
51 0.0
52 0.021551058583374
53 0.0
54 0.0
55 0.0
56 0.0
57 0.0
58 0.0
59 0.0
60 0.000563999448690
61 0.0
62 0.0
63 0.001508670830227
64 0.0
65 0.0
66 -0.052654360667729
67 0.0
68 0.0
69 0.0
70 0.0
71 0.0
72 0.0
73 -0.001025358250993
74 0.0
75 0.0
76 0.0
77 0.0
78 0.0
79 0.007013808910285
80 0.0
 Sym=      1.3
 Ene=       0.0163
 Spin= Alpha
 Occup=    0.000000
1 0.0
2 0.0
3 0.0
4 0.0
5 0.0
6 0.0
7 0.073100364937013
8 0.0
9 0.0
10 0.15547147708561
11 0.0
12 0.0
13 -0.45026845556677
14 0.0
15 0.0
16 1.25928855370892
17 0.0
18 0.0
19 0.0
20 0.0
21 0.0
22 0.0
23 -0.009020723428816
24 0.0
25 0.0
26 0.0
27 0.0
28 0.0
29 0.10053320405049
30 0.0
31 0.0
32 0.0
33 0.0
34 0.0
35 -0.15257831850919
36 0.0
37 -0.001738222232482
38 0.0
39 0.0
40 -0.000777356614366
41 0.0
42 0.0
43 0.003109426457465
44 0.0
45 0.0
46 0.0
47 -0.012047407994874
48 0.0
49 0.0
50 -0.005387764645843
51 0.0
52 0.0
53 0.021551058583370
54 0.0
55 0.0
56 0.0
57 0.0
58 0.0
59 0.0
60 0.0
61 0.000563999448691
62 0.0
63 0.0
64 0.001508670830226
65 0.0
66 0.0
67 -0.052654360667722
68 0.0
69 0.0
70 0.0
71 0.0
72 0.0
73 0.0
74 -0.001025358250993
75 0.0
76 0.0
77 0.0
78 0.0
79 0.0
80 0.007013808910285
 Sym=      4.1
 Ene=       0.0240
 Spin= Alpha
 Occup=    0.000000
1 -0.008887636030722
2 -0.36831307405101
3 0.012737700060433
4 1.15334383114252
5 1.52071350606454
6 0.0
7 0.0
8 0.26850680900490
9 0.0
10 0.0
11 -0.19697775067533
12 0.0
13 0.0
14 2.00309738472815
15 0.0
16 0.0
17 -1.00238359340377
18 -0.008940558214600
19 -0.008940558214599
20 0.017881116429199
21 0.0
22 0.0
23 0.0
24 0.13876555130461
25 0.13876555130461
26 -0.27753110260922
27 0.0
28 0.0
29 0.0
30 -0.17396407535716
31 -0.17396407535715
32 0.34792815071431
33 0.0
34 0.0
35 0.0
36 0.0
37 0.0
38 -0.021477978399918
39 0.0
40 0.0
41 0.014407865916447
42 0.0
43 0.0
44 0.014407865916447
45 0.0
46 0.0
47 0.0
48 0.007396865734334
49 0.0
50 0.0
51 -0.004961968380723
52 0.0
53 0.0
54 -0.004961968380723
55 0.0
56 0.072036541927343
57 -0.014373602517692
58 0.26871062024954
59 -2.74476806886793
60 0.0
61 0.0
62 -0.000111439235534
63 0.0
64 0.0
65 0.001801304906556
66 0.0
67 0.0
68 -0.012388292627276
69 -0.000281505243344
70 -0.000281505243344
71 0.000563010486687
72 0.0
73 0.0
74 0.0
75 0.002414488655894
76 0.002414488655894
77 -0.004828977311787
78 0.0
79 0.0
80 0.0
 Sym=      5.1
 Ene=       0.0261
 Spin= Alpha
 Occup=    0.000000
1 -0.002029334013066
2 -0.017082880724594
3 0.36617514878447
4 1.34896748068442
5 1.00950792830429
6 0.0
7 0.0
8 0.056758920812618
9 0.0
10 0.0
11 0.55704098898030
12 0.0
13 0.0
14 -0.078520682584203
15 0.0
16 0.0
17 1.31301025737544
18 -0.002257473632670
19 -0.002257473632670
20 0.004514947265340
21 0.0
22 0.0
23 0.0
24 -0.064376640163588
25 -0.064376640163589
26 0.12875328032718
27 0.0
28 0.0
29 0.0
30 -0.037805701223074
31 -0.037805701223072
32 0.075611402446146
33 0.0
34 0.0
35 0.0
36 0.0
37 0.0
38 -0.028125584708030
39 0.0
40 0.0
41 0.018867215794225
42 0.0
43 0.0
44 0.018867215794225
45 0.0
46 0.0
47 0.0
48 0.078143951324696
49 0.0
50 0.0
51 -0.052420556157737
52 0.0
53 0.0
54 -0.052420556157736
55 0.0
56 -0.075021222155097
57 0.059770887999884
58 -0.62996394288708
59 -2.01053137086014
60 0.0
61 0.0
62 0.000359015521688
63 0.0
64 0.0
65 -0.001050537887266
66 0.0
67 0.0
68 0.15657152322857
69 -0.000207463255967
70 -0.000207463255967
71 0.000414926511934
72 0.0
73 0.0
74 0.0
75 0.005612149935253
76 0.005612149935253
77 -0.011224299870505
78 0.0
79 0.0
80 0.0
 Sym=      2.2
 Ene=       0.0523
 Spin= Alpha
 Occup=    0.000000
1 0.0
2 0.0
3 0.0
4 0.0
5 0.0
6 0.40389840733139
7 0.0
8 0.0
9 -0.45851692085390
10 0.0
11 0.0
12 1.66702803333630
13 0.0
14 0.0
15 -1.33662867826060
16 0.0
17 0.0
18 0.0
19 0.0
20 0.0
21 0.0
22 -0.044870023544928
23 0.0
24 0.0
25 0.0
26 0.0
27 0.0
28 0.029483009693160
29 0.0
30 0.0
31 0.0
32 0.0
33 0.0
34 -0.31455875108162
35 0.0
36 0.011199325620734
37 0.0
38 0.0
39 0.005008490678023
40 0.0
41 0.0
42 -0.020033962712094
43 0.0
44 0.0
45 0.0
46 0.010427932445957
47 0.0
48 0.0
49 0.004663513162788
50 0.0
51 0.0
52 -0.018654052651149
53 0.0
54 0.0
55 0.0
56 0.0
57 0.0
58 0.0
59 0.0
60 0.001062595471195
61 0.0
62 0.0
63 0.005155681249899
64 0.0
65 0.0
66 0.13716205957162
67 0.0
68 0.0
69 0.0
70 0.0
71 0.0
72 0.0
73 0.001137946942504
74 0.0
75 0.0
76 0.0
77 0.0
78 0.0
79 -0.020927837636363
80 0.0
 Sym=      2.3
 Ene=       0.0523
 Spin= Alpha
 Occup=    0.000000
1 0.0
2 0.0
3 0.0
4 0.0
5 0.0
6 0.0
7 0.40389840733138
8 0.0
9 0.0
10 -0.45851692085388
11 0.0
12 0.0
13 1.66702803333629
14 0.0
15 0.0
16 -1.33662867826060
17 0.0
18 0.0
19 0.0
20 0.0
21 0.0
22 0.0
23 -0.044870023544928
24 0.0
25 0.0
26 0.0
27 0.0
28 0.0
29 0.029483009693170
30 0.0
31 0.0
32 0.0
33 0.0
34 0.0
35 -0.31455875108163
36 0.0
37 0.011199325620735
38 0.0
39 0.0
40 0.005008490678024
41 0.0
42 0.0
43 -0.020033962712096
44 0.0
45 0.0
46 0.0
47 0.010427932445954
48 0.0
49 0.0
50 0.004663513162785
51 0.0
52 0.0
53 -0.018654052651143
54 0.0
55 0.0
56 0.0
57 0.0
58 0.0
59 0.0
60 0.0
61 0.001062595471195
62 0.0
63 0.0
64 0.005155681249900
65 0.0
66 0.0
67 0.13716205957160
68 0.0
69 0.0
70 0.0
71 0.0
72 0.0
73 0.0
74 0.001137946942504
75 0.0
76 0.0
77 0.0
78 0.0
79 0.0
80 -0.020927837636362
 Sym=      6.1
 Ene=       0.0762
 Spin= Alpha
 Occup=    0.000000
1 0.026657975089837
2 -0.19975447804431
3 0.96434261643844
4 -6.57512659475685
5 -0.58027467117496
6 0.0
7 0.0
8 0.52023006198594
9 0.0
10 0.0
11 0.16987562758321
12 0.0
13 0.0
14 -4.65565429997058
15 0.0
16 0.0
17 1.05441796033197
18 -0.025301997438200
19 -0.025301997438201
20 0.050603994876401
21 0.0
22 0.0
23 0.0
24 0.001373204219699
25 0.001373204219704
26 -0.002746408439403
27 0.0
28 0.0
29 0.0
30 0.14218764435431
31 0.14218764435430
32 -0.28437528870860
33 0.0
34 0.0
35 0.0
36 0.0
37 0.0
38 0.11395441252654
39 0.0
40 0.0
41 -0.076442943823620
42 0.0
43 0.0
44 -0.076442943823620
45 0.0
46 0.0
47 0.0
48 -0.22212365951401
49 0.0
50 0.0
51 0.14900508062531
52 0.0
53 0.0
54 0.14900508062531
55 0.0
56 0.12933590013741
57 -0.067481752996660
58 -0.031333767014897
59 7.01390603273485
60 0.0
61 0.0
62 -0.002740979774750
63 0.0
64 0.0
65 0.024976775326805
66 0.0
67 0.0
68 0.19439431090177
69 -0.000902685436040
70 -0.000902685436040
71 0.001805370872081
72 0.0
73 0.0
74 0.0
75 0.011492645837934
76 0.011492645837934
77 -0.022985291675869
78 0.0
79 0.0
80 0.0
 Sym=      7.1
 Ene=       0.1037
 Spin= Alpha
 Occup=    0.000000
1 0.008578694014333
2 -0.17942715183561
3 -0.65788219400062
4 -6.15799924855077
5 -1.30262320576602
6 0.0
7 0.0
8 -0.39451882521277
9 0.0
10 0.0
11 -1.14938831177682
12 0.0
13 0.0
14 -1.87909501686963
15 0.0
16 0.0
17 -0.45786764389003
18 0.053737076041491
19 0.053737076041488
20 -0.10747415208298
21 0.0
22 0.0
23 0.0
24 -0.12201752742521
25 -0.12201752742520
26 0.24403505485041
27 0.0
28 0.0
29 0.0
30 0.68801708889329
31 0.68801708889326
32 -1.37603417778656
33 0.0
34 0.0
35 0.0
36 0.0
37 0.0
38 0.048212303730583
39 0.0
40 0.0
41 -0.032341796548035
42 0.0
43 0.0
44 -0.032341796548035
45 0.0
46 0.0
47 0.0
48 -0.13313305780971
49 0.0
50 0.0
51 0.089308370194474
52 0.0
53 0.0
54 0.089308370194475
55 0.0
56 -0.13041526430997
57 -0.090781728173147
58 1.20829614635402
59 8.33298529354197
60 0.0
61 0.0
62 0.002764941023011
63 0.0
64 0.0
65 -0.009517963869163
66 0.0
67 0.0
68 -0.32611715859129
69 0.000703849383347
70 0.000703849383347
71 -0.001407698766694
72 0.0
73 0.0
74 0.0
75 -0.014300186810902
76 -0.014300186810902
77 0.028600373621804
78 0.0
79 0.0
80 0.0
 Sym=      8.1
 Ene=       0.1125
 Spin= Alpha
 Occup=    0.000000
1 0.000000000000000
2 -0.000000000000000
3 0.000000000000003
4 0.000000000000112
5 0.000000000000020
6 0.0
7 0.0
8 0.000000000000008
9 0.0
10 0.0
11 0.000000000000023
12 0.0
13 0.0
14 0.000000000000033
15 0.0
16 0.0
17 0.000000000000004
18 0.11039631063720
19 -0.11039631063721
20 0.000000000000001
21 0.0
22 0.0
23 0.0
24 -0.71792677214379
25 0.71792677214379
26 0.000000000000004
27 0.0
28 0.0
29 0.0
30 1.41083898425613
31 -1.41083898425614
32 0.000000000000013
33 0.0
34 0.0
35 0.0
36 0.0
37 0.0
38 -0.000000000000000
39 0.0
40 0.0
41 0.051537842106739
42 0.0
43 0.0
44 -0.051537842106738
45 0.0
46 0.0
47 0.0
48 0.000000000000003
49 0.0
50 0.0
51 -0.12640214771800
52 0.0
53 0.0
54 0.12640214771799
55 0.0
56 0.000000000000002
57 0.000000000000000
58 -0.000000000000024
59 -0.000000000000133
60 0.0
61 0.0
62 -0.000000000000000
63 0.0
64 0.0
65 0.000000000000000
66 0.0
67 0.0
68 0.000000000000003
69 -0.000841634655396
70 0.000841634655396
71 -0.000000000000000
72 0.0
73 0.0
74 0.0
75 0.006110882332513
76 -0.006110882332513
77 0.000000000000000
78 0.0
79 0.0
80 0.0
 Sym=      1.4
 Ene=       0.1125
 Spin= Alpha
 Occup=    0.000000
1 0.0
2 0.0
3 0.0
4 0.0
5 0.0
6 0.0
7 0.0
8 0.0
9 0.0
10 0.0
11 0.0
12 0.0
13 0.0
14 0.0
15 0.0
16 0.0
17 0.0
18 0.0
19 0.0
20 0.0
21 0.12747467923592
22 0.0
23 0.0
24 0.0
25 0.0
26 0.0
27 -0.82899042980013
28 0.0
29 0.0
30 0.0
31 0.0
32 0.0
33 1.62909653434606
34 0.0
35 0.0
36 0.0
37 0.0
38 0.0
39 0.0
40 0.0
41 0.0
42 0.0
43 0.0
44 0.0
45 0.059510773768251
46 0.0
47 0.0
48 0.0
49 0.0
50 0.0
51 0.0
52 0.0
53 0.0
54 0.0
55 -0.14595662767357
56 0.0
57 0.0
58 0.0
59 0.0
60 0.0
61 0.0
62 0.0
63 0.0
64 0.0
65 0.0
66 0.0
67 0.0
68 0.0
69 0.0
70 0.0
71 0.0
72 -0.000971835986630
73 0.0
74 0.0
75 0.0
76 0.0
77 0.0
78 0.007056239106517
79 0.0
80 0.0
 Sym=      3.2
 Ene=       0.1197
 Spin= Alpha
 Occup=    0.000000
1 0.0
2 0.0
3 0.0
4 0.0
5 0.0
6 0.24597680936153
7 0.0
8 0.0
9 -0.20093252036360
10 0.0
11 0.0
12 0.29831132196990
13 0.0
14 0.0
15 -0.19262386497853
16 0.0
17 0.0
18 0.0
19 0.0
20 0.0
21 0.0
22 0.14788016367356
23 0.0
24 0.0
25 0.0
26 0.0
27 0.0
28 -0.87890873048343
29 0.0
30 0.0
31 0.0
32 0.0
33 0.0
34 1.59367436898458
35 0.0
36 -0.068841769952061
37 0.0
38 0.0
39 -0.030786975460841
40 0.0
41 0.0
42 0.12314790184337
43 0.0
44 0.0
45 0.0
46 0.15128191641222
47 0.0
48 0.0
49 0.067655329772830
50 0.0
51 0.0
52 -0.27062131909133
53 0.0
54 0.0
55 0.0
56 0.0
57 0.0
58 0.0
59 0.0
60 0.001988064174962
61 0.0
62 0.0
63 -0.000813145877547
64 0.0
65 0.0
66 0.064605019591964
67 0.0
68 0.0
69 0.0
70 0.0
71 0.0
72 0.0
73 0.001076818954227
74 0.0
75 0.0
76 0.0
77 0.0
78 0.0
79 0.023532891055829
80 0.0
 Sym=      3.3
 Ene=       0.1197
 Spin= Alpha
 Occup=    0.000000
1 0.0
2 0.0
3 0.0
4 0.0
5 0.0
6 0.0
7 0.24597680936155
8 0.0
9 0.0
10 -0.20093252036357
11 0.0
12 0.0
13 0.29831132196986
14 0.0
15 0.0
16 -0.19262386497852
17 0.0
18 0.0
19 0.0
20 0.0
21 0.0
22 0.0
23 0.14788016367356
24 0.0
25 0.0
26 0.0
27 0.0
28 0.0
29 -0.87890873048342
30 0.0
31 0.0
32 0.0
33 0.0
34 0.0
35 1.59367436898457
36 0.0
37 -0.068841769952060
38 0.0
39 0.0
40 -0.030786975460842
41 0.0
42 0.0
43 0.12314790184337
44 0.0
45 0.0
46 0.0
47 0.15128191641221
48 0.0
49 0.0
50 0.067655329772831
51 0.0
52 0.0
53 -0.27062131909132
54 0.0
55 0.0
56 0.0
57 0.0
58 0.0
59 0.0
60 0.0
61 0.001988064174962
62 0.0
63 0.0
64 -0.000813145877546
65 0.0
66 0.0
67 0.064605019591947
68 0.0
69 0.0
70 0.0
71 0.0
72 0.0
73 0.0
74 0.001076818954227
75 0.0
76 0.0
77 0.0
78 0.0
79 0.0
80 0.023532891055830
 Sym=      9.1
 Ene=       0.1202
 Spin= Alpha
 Occup=    0.000000
1 0.001759277775319
2 0.22327010562958
3 -1.27993678114620
4 -0.26952896432137
5 0.38314700187936
6 0.0
7 0.0
8 -0.69617067290928
9 0.0
10 0.0
11 -2.17225369342716
12 0.0
13 0.0
14 2.68973109835922
15 0.0
16 0.0
17 -0.88263704669150
18 -0.060375673906928
19 -0.060375673906929
20 0.12075134781386
21 0.0
22 0.0
23 0.0
24 0.65869864128913
25 0.65869864128914
26 -1.31739728257826
27 0.0
28 0.0
29 0.0
30 -0.69493117818775
31 -0.69493117818776
32 1.38986235637551
33 0.0
34 0.0
35 0.0
36 0.0
37 0.0
38 0.12690535497742
39 0.0
40 0.0
41 -0.085130700131473
42 0.0
43 0.0
44 -0.085130700131473
45 0.0
46 0.0
47 0.0
48 -0.40452767972377
49 0.0
50 0.0
51 0.27136541719278
52 0.0
53 0.0
54 0.27136541719278
55 0.0
56 0.018235036062591
57 -0.20072774047965
58 2.40044469026563
59 -0.74858630088278
60 0.0
61 0.0
62 -0.002566575181869
63 0.0
64 0.0
65 0.046510270845404
66 0.0
67 0.0
68 -0.46161923850338
69 0.000714730102556
70 0.000714730102556
71 -0.001429460205112
72 0.0
73 0.0
74 0.0
75 -0.004646965649965
76 -0.004646965649965
77 0.009293931299930
78 0.0
79 0.0
80 0.0
 Sym=      4.2
 Ene=       0.1515
 Spin= Alpha
 Occup=    0.000000
1 0.0
2 0.0
3 0.0
4 0.0
5 0.0
6 -0.54601185895974
7 0.0
8 0.0
9 -1.64283689289086
10 0.0
11 0.0
12 2.35247480661380
13 0.0
14 0.0