[Molden Format]
[Molpro variables]
_NUMVAR=  900.0000000000000    
_AVOGAD= 0.6022136736000000E+24
_BOLTZ= 0.1380658000000000E-22
_CLIGHT=  29979245800.00000    
_EV= 0.3674932379085202E-01
_ENULL= 0.8854187817000000E-11
_KJOULE= 0.3808798324128737E-03
_KJOULE/MOL= 0.3808798324128737E-03
_CM= 0.4556335267302901E-05
_CM-1= 0.4556335267302901E-05
_DEB2SI= 0.3335641000000000E-29
_AMU2AU=  1822.888390000000    
_KCAL= 0.1593601117815568E-02
_KCAL/MOL= 0.1593601117815568E-02
_KELVIN= 0.3166811411060229E-05
_JOULE= 0.4359748200000000E-17
_HERTZ= 0.1519829846004524E-15
_HZ= 0.1519829846004524E-15
_JPCAL=  4.184000000000000    
_PLANCK= 0.6626075540000000E-33
_TOA= 0.5291772109200000    
_TOANG= 0.5291772109200000    
_TORAD= 0.1745329251994330E-01
_TOCM=  219474.6306700000    
_TODEBYE=  2.541580000000000    
_TOE= 0.4803242000000000E-09
_TOEV=  27.21138505000000    
_TOHERTZ=  6579683920729000.    
_TOHZ=  6579683920729000.    
_TOK=  315775.0400000000    
_TOKCAL=  627.5096000000000    
_TOKELVIN=  315775.0400000000    
_TOKJ=  2625.500000000000    
_TOKJOULE=  2625.500000000000    
_TOKG= 0.1660565586000000E-26
_ANG=  1.889726124565062    
_ANGSTROM=  1.889726124565062    
_RPAREF=  0.000000000000000    
_RPADISS=  0.000000000000000    
_IGNORE_UNDEF=  2.000000000000000    
_STRICTCHECK=  0.000000000000000    
_SEW_ONEEL=  0.000000000000000    
_CPPDONE=FALSE
_DKROLL_DONE=  0.000000000000000    
_FOCKDONE=  0.000000000000000    
_GRADONE=FALSE
_HESSDONE=FALSE
_INTDONE=TRUE
_SCFDONE=FALSE
_MODUL_BLOCK=FALSE
_MODUL_CUDA=FALSE
_MODUL_SLATER=FALSE
_MODUL_MRCC=FALSE
_MODUL_NBO6=FALSE
_MODUL_NECI=TRUE
_MODUL_AIMS=TRUE
_MRCC_EXEC=
_FITC_AO_SAVED=FALSE
_FITC_MO_SAVED=FALSE
_SHARED_FS=TRUE
_LSTYP=SEWARD
_INTYP=INTS
_GEOMTYP=ZMAT
_GRADTYP=ALASKA
_DIRECT=FALSE
_DKHO= -1.000000000000000    
_SYNCM=  0.000000000000000    
_BASIS=USERDEF
_ZORIENT=  1.000000000000000    
_NELEC=  4.000000000000000    
!SPIN=  0.000000000000000    
_QSDSTEP=  0.000000000000000    
_QSDIRC=  0.000000000000000    
_PROGRAM=MULTI
_CPUSTEP=  3.870000000000000    
_SYSSTEP= 0.9600000000000000    
_WALLSTEP=  7.420000000000000    
!DFMP2=  0.000000000000000    
!DFSCF=  0.000000000000000    
!DFHFENERG=  0.000000000000000    
!SCSGRD=  0.000000000000000    
_BASINP=  610.0000000000000    
_CPUTOT=  9.770000000000000    
_DFTEXFAC=  1.000000000000000    
_DMX=  0.000000000000000    
_DMY=  0.000000000000000    
_DMZ= -2.622602864892476    
_DMX_SCF=  0.000000000000000    
_DMY_SCF=  0.000000000000000    
_DMZ_SCF= -2.365300325592293    
_EHOMO=-0.3013559743538458    
_ELUMO=-0.7899268784529064E-02
_EIGS= -2.446347702429640    
_ENERGD0= -7.879756888780046    
_ENERGD1= -7.879758226960403    
_ENERGD2= -7.879757009422027    
_ENERGD3= -7.879756977256046    
_ENERGD4= -7.879757098976873    
_ENERGP0= -7.879751941849655    
_ENERGP1= -7.879752610934371    
_ENERGP2= -7.879752002170209    
_ENERGP3= -7.879751986087549    
_ENERGP4= -7.879752046947522    
_ENERGRR= -7.876514744166781    
_ENERGY= -8.008855715162158    
_ENERGY_METHOD=MULTI
_ENERGY_BASIS=USERDEF
_GEOMETRY_METHOD=
_GEOMETRY_BASIS=
_ENUC= 0.7500000000000000    
_GRADEXFAC=  9999.000000000000    
_GRADMETHOD=TRUE
_NMRMETHOD=  0.000000000000000    
_NMRMAGNET=  0.000000000000000    
!GRID_FREEZE= -1.000000000000000    
_ITERATIONS=  8.000000000000000    
_LASTNELEC=  4.000000000000000    
_LASTSPIN=  0.000000000000000    
_LASTSYM=  1.000000000000000    
_MPP_PROG=  1.000000000000000    
_MSNSTATES=  0.000000000000000    
_RS2PHASE=  0.000000000000000    
_NPROC_MPP=  31.00000000000000    
_NPROC_MPPX=  31.00000000000000    
_NPROC_SMP=  1.000000000000000    
_NUMSTEP=  0.000000000000000    
_ORBITAL=  2141.200000000000    
_PI=  3.141592653589793    
_ROOT=  1.000000000000000    
!MCACT=  8.000000000000000    
!MCCLOSED=  0.000000000000000    
!MCFREEZE=  0.000000000000000    
!MCMS2=  0.000000000000000    
!MCNEL=  4.000000000000000    
!MCNSTSYM=  3.000000000000000    
!MCSTATE=  2.000000000000000    
!MCSYM=  1.000000000000000    
!MCWEIGHT= 0.1000000000000000    
_SEIG_MIN= 0.9679172179888289E-04
_SEWPROP=TRUE
_STATUS=  1.000000000000000    
_SYSTOT=  2.470000000000000    
_TROV=  1.000000000000001    
_VERSION=  2015001.000000000    
_WALLTOT=  17.48000000000000    
_DATE=13-Aug-19
_LASTORB=MCSCF
_MACHINE= 64 bit mpp version
_OUTPUT=/global/cscratch1/sd/rbello/Quantum_Chem/molpro.xml
_PGROUP=C2v
_TIME=23:43:47
_LIBMOL=/global/common/cori/software/molpro/2015/molprop_2015_1_linux_x86_64_i8/lib/
_VIGRDC=  0.000000000000000    
!VIBCNT=  0.000000000000000    
!RGHFCNT=  0.000000000000000    
!SURFREC=  0.000000000000000    
!ROTREC=  0.000000000000000    
!POLYREC=  0.000000000000000    
!DIPREC=  0.000000000000000    
!DIP4DREC=  0.000000000000000    
!DIPROT=  0.000000000000000    
!DIP4DROT=  0.000000000000000    
!PTREC=  0.000000000000000    
!PT4DREC=  0.000000000000000    
!VSCFREC=  0.000000000000000    
!VCIREC=  0.000000000000000    
!PVCIREC=  0.000000000000000    
!VMP2REC=  0.000000000000000    
!VMCSCFREC=  0.000000000000000    
!VMRCIREC=  0.000000000000000    
!VIBSTATEREC=  0.000000000000000    
!VIBSTATECNT=  0.000000000000000    
!VIBINFO=  0.000000000000000    
!GAREC=  0.000000000000000    
!SCFORB=  21002.00000000000    
!MCORB=  21412.00000000000    
!CIOCC=  8.000000000000000    
!CICORE=  0.000000000000000    
!CICLOS=  0.000000000000000    
!CIISTSYM=  2.000000000000000    
!CIISTMS2=  0.000000000000000    
!CIISTNEL=  4.000000000000000    
!NEWMOL= -1.000000000000000    
!NEWSYM= -1.000000000000000    
_SLFILES=slscratch
_NGSSTO=  9.000000000000000    
_SIN=SIN
_COS=COS
_TAN=TAN
_ACOS=ACOS
_ASIN=ASIN
_ATAN=ATAN
_COSH=COSH
_SINH=SINH
_TANH=TANH
_ABS=ABS
_MOD=MOD
_ERF=ERF
_REFC=REFC
_ERFC=ERFC
_HYPOT=HYPOT
_J0=J0
_J1=J1
_JN=JN
_GAMMA=GAMMA
_LGAMMA=LGAMMA
_Y0=Y0
_Y1=Y1
_YN=YN
_EXP=EXP
_LOG=LOG
_LOG10=LOG10
_SQRT=SQRT
_INT=INT
_NINT=NINT
_MAX=MAX
_MIN=MIN
_COSMO=  0.000000000000000    
_COSMOIT=  0.000000000000000    
_COSMOES=  0.000000000000000    
_COSMOEDS=  0.000000000000000    
_COSMOEC=  0.000000000000000    
_COSMOEDCORR=  0.000000000000000    
_FEPSI=  1.000000000000000    
_SL_IsMM=  0.000000000000000    
_SL_NSYM=  4.000000000000000    
_SL_System_BitSw=  0.000000000000000    
_SL_Unique_atoms=  0.000000000000000    
_SL_GRAD=  0.000000000000000    
_SL_MAXUPD_Hess=  5.000000000000000    
_SL_N_PRINT_COD=  5.000000000000000    
_SL_PRINT_CODES=  0.000000000000000    
_SL_BasType=  0.000000000000000    
_SL_Energy_Pred=  0.000000000000000    
_SL_New_Coords=  0.000000000000000    
_SL_Total_Nuclea=  0.000000000000000    
_SL_Highest_Mltp=  0.000000000000000    
_SL_Ref_Geom=  0.000000000000000    
_SL_Symmetry_ope=  1.000000000000000    
_SL_agrad=  0.000000000000000    
_SL_GrdMax=  0.000000000000000    
_SL_GrdNorm=  0.000000000000000    
_SL_GrdRMS=  0.000000000000000    
_SL_Hss_Q=  0.000000000000000    
_SL_Hss_X=  0.000000000000000    
_SL_BMxOld=  0.000000000000000    
_SL_KtB=  0.000000000000000    
_SL_TROld=  0.000000000000000    
_SL_No_of_Intern=  0.000000000000000    
_SL_Hess=  0.000000000000000    
_SL_K=  0.000000000000000    
!LATTICE= -1.000000000000000    
!NEWLATTICE=  0.000000000000000    
!LATGRAD_VAR=FALSE
!SEW_LATTICE=  1.000000000000000    
!LOCAL=  0.000000000000000    
!SAVEDOM= -1.000000000000000    
!RESTDOM= -1.000000000000000    
!SAVEDOM_HF= -1.000000000000000    
!RESTDOM_HF= -1.000000000000000    
!HESSREC=  0.000000000000000    
!FREQREC=  0.000000000000000    
!NMODREC=  0.000000000000000    
!GTASKS=  0.000000000000000    
!HTASKS=  0.000000000000000    
!SAVEDOM_EOM= -1.000000000000000    
!RESTDOM_EOM= -1.000000000000000    
!GRADSTATE= -1.000000000000000    
!THRCHG= 0.1000000000000000    
!DEBUG= -1.000000000000000    
!CFIT_CPHF=  0.000000000000000    
!RDOMAUX_CPHF=  3.000000000000000    
!THRAO_CPHF= 0.1000000000000000E-09
!THRMO_CPHF= 0.1000000000000000E-08
!THROV_CPHF= 0.1000000000000000E-11
!THRSW_CPHF= 0.1000000000000000E-09
!THRPROD_CPHF= 0.1000000000000000E-08
!THRAOPR_CPHF= 0.1000000000000000E-11
!CFIT_SCFGRD=  0.000000000000000    
!RDOMAUX_SCFGRD=  5.000000000000000    
!THRAO_SCFGRD= 0.1000000000000000E-09
!THRMO_SCFGRD= 0.1000000000000000E-08
!THROV_SCFGRD= 0.1000000000000000E-11
!THRSW_SCFGRD= 0.1000000000000000E-09
!THRPROD_SCFGRD= 0.1000000000000000E-08
!THRAOPR_SCFGRD= 0.1000000000000000E-11
!LOCFIT_SCF=  0.000000000000000    
!LOCFIT_MP2= -1.000000000000000    
_RIDOM=  0.000000000000000    
!CC2_METHOD=  0.000000000000000    
_BASIS2006=FALSE
_SVDDEL= -1.000000000000000    
_SVDDELA= -1.000000000000000    
_SVDDELP= -1.000000000000000    
_SVDDELF= -1.000000000000000    
_SVDDELS= -1.000000000000000    
_SVDDEL_ABS= -1.000000000000000    
_SVDDELA_ABS= -1.000000000000000    
_SVDDELP_ABS= -1.000000000000000    
_SVDDELF_ABS= -1.000000000000000    
_SVDDELS_ABS= -1.000000000000000    
_MAXBASIS=  0.000000000000000    
!OPT_CONICAL=  0.000000000000000    
!CLEARSP_JGRID=  0.000000000000000    
_GRDHYBR=  0.000000000000000    
_STATEGRAD=  1.000000000000000    
_4EXT_NDISKS=  1.000000000000000    
_C0= 0.9969211611515596    
_C0R= 0.9968837358618183    
!ZMP=  0.000000000000000    
_MAXIT_ZMP=  500.0000000000000    
_MAXDIS_ZMP=  100.0000000000000    
_ACCU_ZMP=  14.00000000000000    
_SHIFTA_ZMP= -100.0000000000000    
!EMBEDFLAG=  1.000000000000000    
!EMBED=FALSE
!EMBED_F12=FALSE
!EMBEDNUC=  0.000000000000000    
_EMBEDENERGY=  0.000000000000000    
_KSPACETIME=  0.000000000000000    
_RSPACETIME=  0.000000000000000    
!EMBED_DFC=FALSE
!NUM_VOIDS=  0.000000000000000    
_IBODY=  0.000000000000000    
_EMBE_TOTAL=  0.000000000000000    
_EMBE_HF=  0.000000000000000    
_EMBE_CORR=  0.000000000000000    
!EMBED_PROJ=FALSE
!EMBED_TRUNC=  0.000000000000000    
!EMB_PROJ_ZMU=  1000000.000000000    
!CORRECTION=  0.000000000000000    
!CORRECTION_HF=  0.000000000000000    
!EMBED_ENERGY=  0.000000000000000    
!EMBED_NAXC=FALSE
!EMBED_AORB=  0.000000000000000    
!EMBED_NACORR=  0.000000000000000    
!EMBED_MP2=FALSE
!EMBED_TRUNC_PERTURBATION=FALSE
!EMBED_FROZEN=  0.000000000000000    
_CHANGE_BASIS=FALSE
_RESTORE_BASIS=FALSE
_FIX_EMBED_GUESS=FALSE
!EDFT=  0.000000000000000    
_IFASTLATGRAD=  0.000000000000000    
_SINDEX=  0.000000000000000    
_AVDOM_OSV=  0.000000000000000    
_AVDOM_PNO=  0.000000000000000    
_AVDOM_PAO=  0.000000000000000    
_AVDOM_LMO=  0.000000000000000    
_CC2OSV_FLAG=  0.000000000000000    
_TMADC2_FLAG=FALSE
_PROPADC2_FLAG=FALSE
_LEN_VirQ=  0.000000000000000    
_GRDCC2LR_FLAG=FALSE
_GRDADC2_FLAG=FALSE
_DMX_CC=  0.000000000000000    
_DMY_CC=  0.000000000000000    
_DMZ_CC=  0.000000000000000    
_DMX_NUC=  0.000000000000000    
_DMY_NUC=  0.000000000000000    
_DMZ_NUC=  1.971170998900000    
R=  4.000000000000000    
GX1=  0.000000000000000    
GY1=  0.000000000000000    
GZ1=-0.5072072502748795    
GX2=  0.000000000000000    
GY2=  0.000000000000000    
GZ2=  3.492792749725121    
_TRDMX=  0.000000000000000    
_TRDMY=  0.000000000000000    
_TRDMZ=  1.463290476519264    
E1= -8.023215543481065    
E2= -7.917144670066940    
E3= -7.879746994942855    
E4= -7.811685871107630    
E5= -7.809527167433049    
E6= -7.786530760515537    
[Atoms] Angs
LI    1    3         0.0000000000        0.0000000000       -0.2684025181
H     2    1         0.0000000000        0.0000000000        1.8483063256
[GTO]
   1 0
 s   11  1.00
  0.5988000000D+04  0.1329999901D-03
  0.8989000000D+03  0.1024999924D-02
  0.2059000000D+03  0.5271999607D-02
  0.5924000000D+02  0.2092899844D-01
  0.1987000000D+02  0.6633999506D-01
  0.7406000000D+01  0.1657749877D+00
  0.2930000000D+01  0.3150379765D+00
  0.1189000000D+01  0.3935229707D+00
  0.4798000000D+00  0.1908699858D+00
  0.7509000000D-01  0.5413999597D-02
  0.2832000000D-01 -0.1327999901D-02
 s   11  1.00
  0.5988000000D+04 -0.2100000605D-04
  0.8989000000D+03 -0.1610000464D-03
  0.2059000000D+03 -0.8200002362D-03
  0.5924000000D+02 -0.3326000958D-02
  0.1987000000D+02 -0.1051900303D-01
  0.7406000000D+01 -0.2809700809D-01
  0.2930000000D+01 -0.5593601611D-01
  0.1189000000D+01 -0.9923702859D-01
  0.4798000000D+00 -0.1121890323D+00
  0.7509000000D-01  0.5678891636D+00
  0.2832000000D-01  0.5303821528D+00
 s   11  1.00
  0.5988000000D+04  0.0000000000D+00
  0.8989000000D+03  0.0000000000D+00
  0.2059000000D+03  0.0000000000D+00
  0.5924000000D+02  0.0000000000D+00
  0.1987000000D+02  0.0000000000D+00
  0.7406000000D+01  0.0000000000D+00
  0.2930000000D+01  0.0000000000D+00
  0.1189000000D+01  0.0000000000D+00
  0.4798000000D+00  0.0000000000D+00
  0.7509000000D-01  0.1000000000D+01
  0.2832000000D-01  0.0000000000D+00
 s   11  1.00
  0.5988000000D+04  0.0000000000D+00
  0.8989000000D+03  0.0000000000D+00
  0.2059000000D+03  0.0000000000D+00
  0.5924000000D+02  0.0000000000D+00
  0.1987000000D+02  0.0000000000D+00
  0.7406000000D+01  0.0000000000D+00
  0.2930000000D+01  0.0000000000D+00
  0.1189000000D+01  0.0000000000D+00
  0.4798000000D+00  0.0000000000D+00
  0.7509000000D-01  0.0000000000D+00
  0.2832000000D-01  0.1000000000D+01
 s    1  1.00
  0.7600000000D-02  0.1000000000D+01
 s    1  1.00
  0.3345973910D-02  0.1000000000D+01
 s    1  1.00
  0.2048422490D-02  0.1000000000D+01
 s    1  1.00
  0.1323642360D-02  0.1000000000D+01
 s    1  1.00
  0.8930957590D-03  0.1000000000D+01
 p    5  1.00
  0.3266000000D+01  0.8630004765D-02
  0.6511000000D+00  0.4753802625D-01
  0.1696000000D+00  0.2097721158D+00
  0.5578000000D-01  0.5285222918D+00
  0.2050000000D-01  0.3827442113D+00
 p    5  1.00
  0.3266000000D+01  0.0000000000D+00
  0.6511000000D+00  0.0000000000D+00
  0.1696000000D+00  0.0000000000D+00
  0.5578000000D-01  0.1000000000D+01
  0.2050000000D-01  0.0000000000D+00
 p    5  1.00
  0.3266000000D+01  0.0000000000D+00
  0.6511000000D+00  0.0000000000D+00
  0.1696000000D+00  0.0000000000D+00
  0.5578000000D-01  0.0000000000D+00
  0.2050000000D-01  0.1000000000D+01
 p    1  1.00
  0.9100000000D-02  0.1000000000D+01
 p    1  1.00
  0.5689360610D-02  0.1000000000D+01
 p    1  1.00
  0.3475679620D-02  0.1000000000D+01
 p    1  1.00
  0.2242058950D-02  0.1000000000D+01
 p    1  1.00
  0.1510639850D-02  0.1000000000D+01
 d    1  1.00
  0.1900000000D+00  0.1000000000D+01
 d    1  1.00
  0.7250000000D-01  0.1000000000D+01
 d    1  1.00
  0.4280000000D-01  0.1000000000D+01
 d    1  1.00
  0.2744569270D-01  0.1000000000D+01
 d    1  1.00
  0.1420439910D-01  0.1000000000D+01
 d    1  1.00
  0.8076593250D-02  0.1000000000D+01
 d    1  1.00
  0.4927186480D-02  0.1000000000D+01
 f    1  1.00
  0.1270000000D+00  0.1000000000D+01
 f    1  1.00
  0.8120000000D-01  0.1000000000D+01
  
   2 0
 s    5  1.00
  0.3387000000D+02  0.6067999217D-02
  0.5095000000D+01  0.4530799416D-01
  0.1159000000D+01  0.2028219738D+00
  0.3258000000D+00  0.5039029350D+00
  0.1027000000D+00  0.3834209505D+00
 s    5  1.00
  0.3387000000D+02  0.0000000000D+00
  0.5095000000D+01  0.0000000000D+00
  0.1159000000D+01  0.0000000000D+00
  0.3258000000D+00  0.1000000000D+01
  0.1027000000D+00  0.0000000000D+00
 s    5  1.00
  0.3387000000D+02  0.0000000000D+00
  0.5095000000D+01  0.0000000000D+00
  0.1159000000D+01  0.0000000000D+00
  0.3258000000D+00  0.0000000000D+00
  0.1027000000D+00  0.1000000000D+01
 s    1  1.00
  0.2526000000D-01  0.1000000000D+01
 p    1  1.00
  0.1407000000D+01  0.1000000000D+01
 p    1  1.00
  0.3880000000D+00  0.1000000000D+01
 p    1  1.00
  0.1020000000D+00  0.1000000000D+01
 d    1  1.00
  0.1057000000D+01  0.1000000000D+01
 d    1  1.00
  0.2470000000D+00  0.1000000000D+01
 
 
[MO]
 Sym=      1.1
 Ene=      -2.6134
 Spin= Alpha
 Occup=    1.996666
1 0.99684343642734
2 -0.008238192023859
3 0.010353250986003
4 0.001893538647209
5 0.000101220768033
6 -0.001365912535751
7 0.002228304748030
8 -0.001676150762444
9 0.000514936282164
10 0.0
11 0.0
12 -0.006258992206476
13 0.0
14 0.0
15 0.010538722673090
16 0.0
17 0.0
18 -0.003284306445165
19 0.0
20 0.0
21 0.007162644312007
22 0.0
23 0.0
24 -0.009719980623706
25 0.0
26 0.0
27 0.008300181105283
28 0.0
29 0.0
30 -0.004857289161883
31 0.0
32 0.0
33 0.001354753401943
34 0.000255914742760
35 0.000255914742760
36 -0.000511829485520
37 0.0
38 0.0
39 0.0
40 -0.002110236195229
41 -0.002110236195229
42 0.004220472390457
43 0.0
44 0.0
45 0.0
46 0.000598787766771
47 0.000598787766771
48 -0.001197575533543
49 0.0
50 0.0
51 0.0
52 -0.000058278537757
53 -0.000058278537757
54 0.000116557075515
55 0.0
56 0.0
57 0.0
58 0.000252304707318
59 0.000252304707318
60 -0.000504609414636
61 0.0
62 0.0
63 0.0
64 -0.000112003154539
65 -0.000112003154539
66 0.000224006309079
67 0.0
68 0.0
69 0.0
70 0.000032884642680
71 0.000032884642680
72 -0.000065769285360
73 0.0
74 0.0
75 0.0
76 0.0
77 0.0
78 -0.000022700604350
79 0.0
80 0.0
81 0.000015228028337
82 0.0
83 0.0
84 0.000015228028337
85 0.0
86 0.0
87 0.0
88 0.001379511275571
89 0.0
90 0.0
91 -0.000925404296371
92 0.0
93 0.0
94 -0.000925404296371
95 0.0
96 0.000296665823476
97 0.000761371656473
98 -0.007857436006939
99 0.003415153918268
100 0.0
101 0.0
102 -0.000017868448345
103 0.0
104 0.0
105 -0.000451903655708
106 0.0
107 0.0
108 0.001117359002773
109 0.000027830342375
110 0.000027830342375
111 -0.000055660684750
112 0.0
113 0.0
114 0.0
115 -0.000463738016786
116 -0.000463738016786
117 0.000927476033571
118 0.0
119 0.0
120 0.0
 Sym=      2.1
 Ene=      -0.3194
 Spin= Alpha
 Occup=    1.078758
1 -0.015976983172783
2 0.20177361581877
3 -0.013369773926714
4 -0.16911189563533
5 -0.005723435403038
6 -0.005293792082676
7 0.012174266950484
8 -0.010148898046595
9 0.003263406790121
10 0.0
11 0.0
12 0.31369266626814
13 0.0
14 0.0
15 -0.12542787329428
16 0.0
17 0.0
18 -0.15549708574479
19 0.0
20 0.0
21 0.035909920827924
22 0.0
23 0.0
24 -0.051005574167364
25 0.0
26 0.0
27 0.044900812123068
28 0.0
29 0.0
30 -0.026721219129705
31 0.0
32 0.0
33 0.007528746232730
34 -0.011640784750663
35 -0.011640784750663
36 0.023281569501325
37 0.0
38 0.0
39 0.0
40 -0.008689083674068
41 -0.008689083674068
42 0.017378167348137
43 0.0
44 0.0
45 0.0
46 0.008924534646546
47 0.008924534646546
48 -0.017849069293092
49 0.0
50 0.0
51 0.0
52 -0.003012791998499
53 -0.003012791998499
54 0.006025583996998
55 0.0
56 0.0
57 0.0
58 0.004241716592886
59 0.004241716592886
60 -0.008483433185771
61 0.0
62 0.0
63 0.0
64 -0.001744875636877
65 -0.001744875636877
66 0.003489751273753
67 0.0
68 0.0
69 0.0
70 0.000490865024031
71 0.000490865024031
72 -0.000981730048062
73 0.0
74 0.0
75 0.0
76 0.0
77 0.0
78 0.016362811322341
79 0.0
80 0.0
81 -0.010976507525927
82 0.0
83 0.0
84 -0.010976507525927
85 0.0
86 0.0
87 0.0
88 -0.007340940637430
89 0.0
90 0.0
91 0.004924452685225
92 0.0
93 0.0
94 0.004924452685225
95 0.0
96 0.95115499092445
97 -0.005544153117555
98 -0.049690765467552
99 0.062594161727283
100 0.0
101 0.0
102 -0.002096343250077
103 0.0
104 0.0
105 -0.022850643856944
106 0.0
107 0.0
108 -0.019685438042113
109 -0.000573477659944
110 -0.000573477659944
111 0.001146955319888
112 0.0
113 0.0
114 0.0
115 -0.003390922818343
116 -0.003390922818343
117 0.006781845636685
118 0.0
119 0.0
120 0.0
 Sym=      3.1
 Ene=      -0.0544
 Spin= Alpha
 Occup=    0.100242
1 -0.037562420885860
2 0.67440919659286
3 0.050634073841903
4 0.20831158121584
5 0.096588429043034
6 -0.11654157833439
7 0.13924654559722
8 -0.090386079853731
9 0.025638552875616
10 0.0
11 0.0
12 -0.58695076499463
13 0.0
14 0.0
15 0.024484196581884
16 0.0
17 0.0
18 0.11032713556829
19 0.0
20 0.0
21 0.064330984576615
22 0.0
23 0.0
24 -0.086269172706895
25 0.0
26 0.0
27 0.070345972350952
28 0.0
29 0.0
30 -0.040301532031474
31 0.0
32 0.0
33 0.011145983506617
34 0.002443061404506
35 0.002443061404506
36 -0.004886122809013
37 0.0
38 0.0
39 0.0
40 0.003329475344690
41 0.003329475344690
42 -0.006658950689380
43 0.0
44 0.0
45 0.0
46 0.009967356664710
47 0.009967356664710
48 -0.019934713329419
49 0.0
50 0.0
51 0.0
52 -0.001728362077861
53 -0.001728362077861
54 0.003456724155721
55 0.0
56 0.0
57 0.0
58 -0.004051297322468
59 -0.004051297322468
60 0.008102594644937
61 0.0
62 0.0
63 0.0
64 0.002337653289156
65 0.002337653289156
66 -0.004675306578311
67 0.0
68 0.0
69 0.0
70 -0.000705324481486
71 -0.000705324481486
72 0.001410648962972
73 0.0
74 0.0
75 0.0
76 0.0
77 0.0
78 0.000190051443097
79 0.0
80 0.0
81 -0.000127490383796
82 0.0
83 0.0
84 -0.000127490383796
85 0.0
86 0.0
87 0.0
88 -0.003508891079622
89 0.0
90 0.0
91 0.002353835693903
92 0.0
93 0.0
94 0.002353835693903
95 0.0
96 -0.038100117705156
97 0.010134230222576
98 -0.026348047146704
99 -0.13811417096790
100 0.0
101 0.0
102 -0.000380173994463
103 0.0
104 0.0
105 -0.000653889281717
106 0.0
107 0.0
108 -0.001218533891254
109 -0.000034525984746
110 -0.000034525984746
111 0.000069051969491
112 0.0
113 0.0
114 0.0
115 -0.000068828529762
116 -0.000068828529762
117 0.000137657059523
118 0.0
119 0.0
120 0.0
 Sym=      1.3
 Ene=      -0.0098
 Spin= Alpha
 Occup=    0.100141
1 0.0
2 0.0
3 0.0
4 0.0
5 0.0
6 0.0
7 0.0
8 0.0
9 0.0
10 0.0
11 0.83132300376207
12 0.0
13 0.0
14 -0.013446953143297
15 0.0
16 0.0
17 0.089010773656561
18 0.0
19 0.0
20 0.079574340224334
21 0.0
22 0.0
23 0.13117581285417
24 0.0
25 0.0
26 -0.19880819547921
27 0.0
28 0.0
29 -0.031299990180983
30 0.0
31 0.0
32 -0.029365685780568
33 0.0
34 0.0
35 0.0
36 0.0
37 0.0
38 0.0
39 0.001002922476428
40 0.0
41 0.0
42 0.0
43 0.0
44 0.0
45 0.011824408078635
46 0.0
47 0.0
48 0.0
49 0.0
50 0.0
51 0.017189051971155
52 0.0
53 0.0
54 0.0
55 0.0
56 0.0
57 0.10284616647864
58 0.0
59 0.0
60 0.0
61 0.0
62 0.0
63 0.14613500482582
64 0.0
65 0.0
66 0.0
67 0.0
68 0.0
69 0.14528789460907
70 0.0
71 0.0
72 0.0
73 0.0
74 0.0
75 -0.040836862700199
76 0.0
77 0.003006752295686
78 0.0
79 0.0
80 0.001344660504931
81 0.0
82 0.0
83 -0.005378642019725
84 0.0
85 0.0
86 0.0
87 -0.001321121190950
88 0.0
89 0.0
90 -0.000590823357896
91 0.0
92 0.0
93 0.002363293431585
94 0.0
95 0.0
96 0.0
97 0.0
98 0.0
99 0.0
100 0.0
101 0.001073305453848
102 0.0
103 0.0
104 -0.004112962000171
105 0.0
106 0.0
107 -0.011041210749101
108 0.0
109 0.0
110 0.0
111 0.0
112 0.0
113 0.0
114 -0.000030670653720
115 0.0
116 0.0
117 0.0
118 0.0
119 0.0
120 0.002258029807995
 Sym=      1.2
 Ene=      -0.0098
 Spin= Alpha
 Occup=    0.100141
1 0.0
2 0.0
3 0.0
4 0.0
5 0.0
6 0.0
7 0.0
8 0.0
9 0.0
10 0.83132341775287
11 0.0
12 0.0
13 -0.013447311946605
14 0.0
15 0.0
16 0.089010971132805
17 0.0
18 0.0
19 0.079572889179301
20 0.0
21 0.0
22 0.13117814113913
23 0.0
24 0.0
25 -0.19881039771182
26 0.0
27 0.0
28 -0.031298727044208
29 0.0
30 0.0
31 -0.029366140113034
32 0.0
33 0.0
34 0.0
35 0.0
36 0.0
37 0.0
38 0.001002819768419
39 0.0
40 0.0
41 0.0
42 0.0
43 0.0
44 0.011824502672388
45 0.0
46 0.0
47 0.0
48 0.0
49 0.0
50 0.017188968240453
51 0.0
52 0.0
53 0.0
54 0.0
55 0.0
56 0.10284616829177
57 0.0
58 0.0
59 0.0
60 0.0
61 0.0
62 0.14613521535160
63 0.0
64 0.0
65 0.0
66 0.0
67 0.0
68 0.14528749994885
69 0.0
70 0.0
71 0.0
72 0.0
73 0.0
74 -0.040836635088836
75 0.0
76 0.003006812272006
77 0.0
78 0.0
79 0.001344687327157
80 0.0
81 0.0
82 -0.005378749308628
83 0.0
84 0.0
85 0.0
86 -0.001321166207989
87 0.0
88 0.0
89 -0.000590843490128
90 0.0
91 0.0
92 0.002363373960512
93 0.0
94 0.0
95 0.0
96 0.0
97 0.0
98 0.0
99 0.0
100 0.001073280222188
101 0.0
102 0.0
103 -0.004113043447082
104 0.0
105 0.0
106 -0.011041054780541
107 0.0
108 0.0
109 0.0
110 0.0
111 0.0
112 0.0
113 -0.000030649531411
114 0.0
115 0.0
116 0.0
117 0.0
118 0.0
119 0.002258136721464
120 0.0
 Sym=      3.3
 Ene=       0.0069
 Spin= Alpha
 Occup=    0.100000
1 0.0
2 0.0
3 0.0
4 0.0
5 0.0
6 0.0
7 0.0
8 0.0
9 0.0
10 0.0
11 0.031734110697260
12 0.0
13 0.0
14 0.020323064036920
15 0.0
16 0.0
17 -0.065475138179159
18 0.0
19 0.0
20 -0.53388885366670
21 0.0
22 0.0
23 0.11459504466479
24 0.0
25 0.0
26 0.44540222659805
27 0.0
28 0.0
29 0.53871877842287
30 0.0
31 0.0
32 0.052533180769555
33 0.0
34 0.0
35 0.0
36 0.0
37 0.0
38 0.0
39 0.003870297629408
40 0.0
41 0.0
42 0.0
43 0.0
44 0.0
45 -0.002689471132174
46 0.0
47 0.0
48 0.0
49 0.0
50 0.0
51 0.065461765586890
52 0.0
53 0.0
54 0.0
55 0.0
56 0.0
57 -0.039270457355471
58 0.0
59 0.0
60 0.0
61 0.0
62 0.0
63 0.25212741711987
64 0.0
65 0.0
66 0.0
67 0.0
68 0.0
69 -0.14670333316883
70 0.0
71 0.0
72 0.0
73 0.0
74 0.0
75 0.49431441194755
76 0.0
77 0.000741866407328
78 0.0
79 0.0
80 0.000331772743402
81 0.0
82 0.0
83 -0.001327090973606
84 0.0
85 0.0
86 0.0
87 -0.000229434408204
88 0.0
89 0.0
90 -0.000102606186624
91 0.0
92 0.0
93 0.000410424746498
94 0.0
95 0.0
96 0.0
97 0.0
98 0.0
99 0.0
100 0.0
101 0.000151681171415
102 0.0
103 0.0
104 -0.000470778594407
105 0.0
106 0.0
107 -0.000456001353225
108 0.0
109 0.0
110 0.0
111 0.0
112 0.0
113 0.0
114 0.000035271099282
115 0.0
116 0.0
117 0.0
118 0.0
119 0.0
120 0.000075864397360
 Sym=      3.2
 Ene=       0.0069
 Spin= Alpha
 Occup=    0.100000
1 0.0
2 0.0
3 0.0
4 0.0
5 0.0
6 0.0
7 0.0
8 0.0
9 0.0
10 0.031734974078809
11 0.0
12 0.0
13 0.020322639149835
14 0.0
15 0.0
16 -0.065475066675077
17 0.0
18 0.0
19 -0.53388990369736
20 0.0
21 0.0
22 0.11459410860190
23 0.0
24 0.0
25 0.44540235482445
26 0.0
27 0.0
28 0.53871908305877
29 0.0
30 0.0
31 0.052532610915008
32 0.0
33 0.0
34 0.0
35 0.0
36 0.0
37 0.0
38 0.003870197760727
39 0.0
40 0.0
41 0.0
42 0.0
43 0.0
44 -0.002689373745164
45 0.0
46 0.0
47 0.0
48 0.0
49 0.0
50 0.065462061375108
51 0.0
52 0.0
53 0.0
54 0.0
55 0.0
56 -0.039270599094447
57 0.0
58 0.0
59 0.0
60 0.0
61 0.0
62 0.25212900352318
63 0.0
64 0.0
65 0.0
66 0.0
67 0.0
68 -0.14670448398844
69 0.0
70 0.0
71 0.0
72 0.0
73 0.0
74 0.49431565617629
75 0.0
76 0.000741936755413
77 0.0
78 0.0
79 0.000331804204022
80 0.0
81 0.0
82 -0.001327216816088
83 0.0
84 0.0
85 0.0
86 -0.000229487330314
87 0.0
88 0.0
89 -0.000102629854111
90 0.0
91 0.0
92 0.000410519416446
93 0.0
94 0.0
95 0.0
96 0.0
97 0.0
98 0.0
99 0.0
100 0.000151680915531
101 0.0
102 0.0
103 -0.000470822356601
104 0.0
105 0.0
106 -0.000455981642504
107 0.0
108 0.0
109 0.0
110 0.0
111 0.0
112 0.0
113 0.000035300605604
114 0.0
115 0.0
116 0.0
117 0.0
118 0.0
119 0.000076009734280
120 0.0
 Sym=      2.2
 Ene=       0.0106
 Spin= Alpha
 Occup=    0.100001
1 0.0
2 0.0
3 0.0
4 0.0
5 0.0
6 0.0
7 0.0
8 0.0
9 0.0
10 0.052825458728255
11 0.0
12 0.0
13 0.026051241701135
14 0.0
15 0.0
16 -0.037920845005207
17 0.0
18 0.0
19 -0.38744877371203
20 0.0
21 0.0
22 -0.070481010669606
23 0.0
24 0.0
25 -0.27788017747376
26 0.0
27 0.0
28 0.003926286707960
29 0.0
30 0.0
31 -0.033588572289367
32 0.0
33 0.0
34 0.0
35 0.0
36 0.0
37 0.0
38 0.008269222171412
39 0.0
40 0.0
41 0.0
42 0.0
43 0.0
44 0.035587145099909
45 0.0
46 0.0
47 0.0
48 0.0
49 0.0
50 0.037434243296258
51 0.0
52 0.0
53 0.0
54 0.0
55 0.0
56 0.17734430662715
57 0.0
58 0.0
59 0.0
60 0.0
61 0.0
62 0.29372312463194
63 0.0
64 0.0
65 0.0
66 0.0
67 0.0
68 0.23390127246563
69 0.0
70 0.0
71 0.0
72 0.0
73 0.0
74 0.019198974976372
75 0.0
76 0.001292779880361
77 0.0
78 0.0
79 0.000578148738486
80 0.0
81 0.0
82 -0.002312594953945
83 0.0
84 0.0
85 0.0
86 -0.000051178608367
87 0.0
88 0.0
89 -0.000022887769460
90 0.0
91 0.0
92 0.000091551077842
93 0.0
94 0.0
95 0.0
96 0.0
97 0.0
98 0.0
99 0.0
100 0.000462152898362
101 0.0
102 0.0
103 -0.001515232085594
104 0.0
105 0.0
106 -0.002503633845373
107 0.0
108 0.0
109 0.0
110 0.0
111 0.0
112 0.0
113 0.000032575042406
114 0.0
115 0.0
116 0.0
117 0.0
118 0.0
119 0.000938383689167
120 0.0
 Sym=      2.3
 Ene=       0.0106
 Spin= Alpha
 Occup=    0.100001
1 0.0
2 0.0
3 0.0
4 0.0
5 0.0
6 0.0
7 0.0
8 0.0
9 0.0
10 0.0
11 -0.052825493632209
12 0.0
13 0.0
14 -0.026051290384890
15 0.0
16 0.0
17 0.037920960736482
18 0.0
19 0.0
20 0.38744959502748
21 0.0
22 0.0
23 0.070481211523320
24 0.0
25 0.0
26 0.27787869004498
27 0.0
28 0.0
29 -0.003927335184122
30 0.0
31 0.0
32 0.033588630291530
33 0.0
34 0.0
35 0.0
36 0.0
37 0.0
38 0.0
39 -0.008269247736460
40 0.0
41 0.0
42 0.0
43 0.0
44 0.0
45 -0.035587178597994
46 0.0
47 0.0
48 0.0
49 0.0
50 0.0
51 -0.037434348669869
52 0.0
53 0.0
54 0.0
55 0.0
56 0.0
57 -0.17734432469744
58 0.0
59 0.0
60 0.0
61 0.0
62 0.0
63 -0.29372391751600
64 0.0
65 0.0
66 0.0
67 0.0
68 0.0
69 -0.23390062706290
70 0.0
71 0.0
72 0.0
73 0.0
74 0.0
75 -0.019200230082497
76 0.0
77 -0.001292757642661
78 0.0
79 0.0
80 -0.000578138793485
81 0.0
82 0.0
83 0.002312555173938
84 0.0
85 0.0
86 0.0
87 0.000051151928747
88 0.0
89 0.0
90 0.000022875837972
91 0.0
92 0.0
93 -0.000091503351887
94 0.0
95 0.0
96 0.0
97 0.0
98 0.0
99 0.0
100 0.0
101 -0.000462138476176
102 0.0
103 0.0
104 0.001515315537580
105 0.0
106 0.0
107 0.002503640936932
108 0.0
109 0.0
110 0.0
111 0.0
112 0.0
113 0.0
114 -0.000032588595666
115 0.0
116 0.0
117 0.0
118 0.0
119 0.0
120 -0.000938414151403
 Sym=      4.3
 Ene=       0.0345
 Spin= Alpha
 Occup=    0.099929
1 0.0
2 0.0
3 0.0
4 0.0
5 0.0
6 0.0
7 0.0
8 0.0
9 0.0
10 0.0
11 0.87979827813146
12 0.0
13 0.0
14 0.079324108686634
15 0.0
16 0.0
17 -0.14351895675547
18 0.0
19 0.0
20 -1.26268659499815
21 0.0
22 0.0
23 0.18467690895382
24 0.0
25 0.0
26 -0.12302810595466
27 0.0
28 0.0
29 0.59359860050710
30 0.0
31 0.0
32 -0.023019943894981
33 0.0
34 0.0
35 0.0
36 0.0
37 0.0
38 0.0
39 -0.009545451572296
40 0.0
41 0.0
42 0.0
43 0.0
44 0.0
45 -0.037243763505950
46 0.0
47 0.0
48 0.0
49 0.0
50 0.0
51 0.004087573790291
52 0.0
53 0.0
54 0.0
55 0.0
56 0.0
57 -0.20324458652824
58 0.0
59 0.0
60 0.0
61 0.0
62 0.0
63 -0.13498216093428
64 0.0
65 0.0
66 0.0
67 0.0
68 0.0
69 -0.29531272240621
70 0.0
71 0.0
72 0.0
73 0.0
74 0.0
75 0.27223887744482
76 0.0
77 -0.000880605588228
78 0.0
79 0.0
80 -0.000393818791329
81 0.0
82 0.0
83 0.001575275165315
84 0.0
85 0.0
86 0.0
87 0.000855715514303
88 0.0
89 0.0
90 0.000382687611877
91 0.0
92 0.0
93 -0.001530750447506
94 0.0
95 0.0
96 0.0
97 0.0
98 0.0
99 0.0
100 0.0
101 -0.000000327352215
102 0.0
103 0.0
104 0.000051187573846
105 0.0
106 0.0
107 -0.012757457248152
108 0.0
109 0.0
110 0.0
111 0.0
112 0.0
113 0.0
114 -0.000123277400373
115 0.0
116 0.0
117 0.0
118 0.0
119 0.0
120 0.000422643484966
 Sym=      4.2
 Ene=       0.0345
 Spin= Alpha
 Occup=    0.099929
1 0.0
2 0.0
3 0.0
4 0.0
5 0.0
6 0.0
7 0.0
8 0.0
9 0.0
10 0.87979805258489
11 0.0
12 0.0
13 0.079324238289533
14 0.0
15 0.0
16 -0.14351893274864
17 0.0
18 0.0