[Molden Format]
[Molpro variables]
_NUMVAR=  900.0000000000000    
_AVOGAD= 0.6022136736000000E+24
_BOLTZ= 0.1380658000000000E-22
_CLIGHT=  29979245800.00000    
_EV= 0.3674932379085202E-01
_ENULL= 0.8854187817000000E-11
_KJOULE= 0.3808798324128737E-03
_KJOULE/MOL= 0.3808798324128737E-03
_CM= 0.4556335267302901E-05
_CM-1= 0.4556335267302901E-05
_DEB2SI= 0.3335641000000000E-29
_AMU2AU=  1822.888390000000    
_KCAL= 0.1593601117815568E-02
_KCAL/MOL= 0.1593601117815568E-02
_KELVIN= 0.3166811411060229E-05
_JOULE= 0.4359748200000000E-17
_HERTZ= 0.1519829846004524E-15
_HZ= 0.1519829846004524E-15
_JPCAL=  4.184000000000000    
_PLANCK= 0.6626075540000000E-33
_TOA= 0.5291772109200000    
_TOANG= 0.5291772109200000    
_TORAD= 0.1745329251994330E-01
_TOCM=  219474.6306700000    
_TODEBYE=  2.541580000000000    
_TOE= 0.4803242000000000E-09
_TOEV=  27.21138505000000    
_TOHERTZ=  6579683920729000.    
_TOHZ=  6579683920729000.    
_TOK=  315775.0400000000    
_TOKCAL=  627.5096000000000    
_TOKELVIN=  315775.0400000000    
_TOKJ=  2625.500000000000    
_TOKJOULE=  2625.500000000000    
_TOKG= 0.1660565586000000E-26
_ANG=  1.889726124565062    
_ANGSTROM=  1.889726124565062    
_RPAREF=  0.000000000000000    
_RPADISS=  0.000000000000000    
_IGNORE_UNDEF=  2.000000000000000    
_STRICTCHECK=  0.000000000000000    
_SEW_ONEEL=  0.000000000000000    
_CPPDONE=FALSE
_DKROLL_DONE=  0.000000000000000    
_FOCKDONE=  0.000000000000000    
_GRADONE=FALSE
_HESSDONE=FALSE
_INTDONE=TRUE
_SCFDONE=FALSE
_MODUL_BLOCK=FALSE
_MODUL_CUDA=FALSE
_MODUL_SLATER=FALSE
_MODUL_MRCC=FALSE
_MODUL_NBO6=FALSE
_MODUL_NECI=TRUE
_MODUL_AIMS=TRUE
_MRCC_EXEC=
_FITC_AO_SAVED=FALSE
_FITC_MO_SAVED=FALSE
_SHARED_FS=TRUE
_LSTYP=SEWARD
_INTYP=INTS
_GEOMTYP=ZMAT
_GRADTYP=ALASKA
_DIRECT=FALSE
_DKHO= -1.000000000000000    
_SYNCM=  0.000000000000000    
_BASIS=AUG-CC-PVTZ
_ZORIENT=  1.000000000000000    
_NELEC=  4.000000000000000    
!SPIN=  0.000000000000000    
_QSDSTEP=  0.000000000000000    
_QSDIRC=  0.000000000000000    
_PROGRAM=MULTI
_CPUSTEP=  2.590000000000000    
_SYSSTEP= 0.6699999999999999    
_WALLSTEP=  4.340000000000000    
!DFMP2=  0.000000000000000    
!DFSCF=  0.000000000000000    
!DFHFENERG=  0.000000000000000    
!SCSGRD=  0.000000000000000    
_BASINP=  610.0000000000000    
_CPUTOT=  5.200000000000000    
_DFTEXFAC=  1.000000000000000    
_DMX=  0.000000000000000    
_DMY=  0.000000000000000    
_DMZ= -2.743815169820953    
_DMX_SCF=  0.000000000000000    
_DMY_SCF=  0.000000000000000    
_DMZ_SCF= -2.365296268558712    
_EHOMO=-0.3013453622263732    
_ELUMO=-0.7338847549960371E-02
_EIGS= -2.446398928216904    
_ENERGD0= -7.879979445838960    
_ENERGD1= -7.879979822566730    
_ENERGD2= -7.879979476248185    
_ENERGD3= -7.879979475405449    
_ENERGD4= -7.879979506095566    
_ENERGP0= -7.879977845411399    
_ENERGP1= -7.879978033774856    
_ENERGP2= -7.879977860615980    
_ENERGP3= -7.879977860194633    
_ENERGP4= -7.879977875539661    
_ENERGRR= -7.878009276030512    
_ENERGY= -7.983524079301784    
_ENERGY_METHOD=MULTI
_ENERGY_BASIS=aug-cc-pVTZ
_GEOMETRY_METHOD=
_GEOMETRY_BASIS=
_ENUC= 0.6000000000000000    
_GRADEXFAC=  9999.000000000000    
_GRADMETHOD=TRUE
_NMRMETHOD=  0.000000000000000    
_NMRMAGNET=  0.000000000000000    
!GRID_FREEZE= -1.000000000000000    
_ITERATIONS=  7.000000000000000    
_LASTNELEC=  4.000000000000000    
_LASTSPIN=  0.000000000000000    
_LASTSYM=  1.000000000000000    
_MPP_PROG=  1.000000000000000    
_MSNSTATES=  0.000000000000000    
_RS2PHASE=  0.000000000000000    
_NPROC_MPP=  31.00000000000000    
_NPROC_MPPX=  31.00000000000000    
_NPROC_SMP=  1.000000000000000    
_NUMSTEP=  0.000000000000000    
_ORBITAL=  2141.200000000000    
_PI=  3.141592653589793    
_ROOT=  1.000000000000000    
!MCACT=  8.000000000000000    
!MCCLOSED=  0.000000000000000    
!MCFREEZE=  0.000000000000000    
!MCMS2=  0.000000000000000    
!MCNEL=  4.000000000000000    
!MCNSTSYM=  3.000000000000000    
!MCSTATE=  2.000000000000000    
!MCSYM=  1.000000000000000    
!MCWEIGHT= 0.1000000000000000    
_SEIG_MIN= 0.1013730980919464E-02
_SEWPROP=TRUE
_STATUS=  1.000000000000000    
_SYSTOT=  1.450000000000000    
_TROV=  1.000000000000003    
_VERSION=  2015001.000000000    
_WALLTOT=  13.07000000000000    
_DATE=12-Aug-19
_LASTORB=MCSCF
_MACHINE= 64 bit mpp version
_OUTPUT=/global/cscratch1/sd/rbello/Quantum_Chem/molpro.xml
_PGROUP=C2v
_TIME=08:16:17
_LIBMOL=/global/common/cori/software/molpro/2015/molprop_2015_1_linux_x86_64_i8/lib/
_VIGRDC=  0.000000000000000    
!VIBCNT=  0.000000000000000    
!RGHFCNT=  0.000000000000000    
!SURFREC=  0.000000000000000    
!ROTREC=  0.000000000000000    
!POLYREC=  0.000000000000000    
!DIPREC=  0.000000000000000    
!DIP4DREC=  0.000000000000000    
!DIPROT=  0.000000000000000    
!DIP4DROT=  0.000000000000000    
!PTREC=  0.000000000000000    
!PT4DREC=  0.000000000000000    
!VSCFREC=  0.000000000000000    
!VCIREC=  0.000000000000000    
!PVCIREC=  0.000000000000000    
!VMP2REC=  0.000000000000000    
!VMCSCFREC=  0.000000000000000    
!VMRCIREC=  0.000000000000000    
!VIBSTATEREC=  0.000000000000000    
!VIBSTATECNT=  0.000000000000000    
!VIBINFO=  0.000000000000000    
!GAREC=  0.000000000000000    
!SCFORB=  21002.00000000000    
!MCORB=  21412.00000000000    
!CIOCC=  8.000000000000000    
!CICORE=  0.000000000000000    
!CICLOS=  0.000000000000000    
!CIISTSYM=  2.000000000000000    
!CIISTMS2=  0.000000000000000    
!CIISTNEL=  4.000000000000000    
!NEWMOL= -1.000000000000000    
!NEWSYM= -1.000000000000000    
_SLFILES=slscratch
_NGSSTO=  9.000000000000000    
_SIN=SIN
_COS=COS
_TAN=TAN
_ACOS=ACOS
_ASIN=ASIN
_ATAN=ATAN
_COSH=COSH
_SINH=SINH
_TANH=TANH
_ABS=ABS
_MOD=MOD
_ERF=ERF
_REFC=REFC
_ERFC=ERFC
_HYPOT=HYPOT
_J0=J0
_J1=J1
_JN=JN
_GAMMA=GAMMA
_LGAMMA=LGAMMA
_Y0=Y0
_Y1=Y1
_YN=YN
_EXP=EXP
_LOG=LOG
_LOG10=LOG10
_SQRT=SQRT
_INT=INT
_NINT=NINT
_MAX=MAX
_MIN=MIN
_COSMO=  0.000000000000000    
_COSMOIT=  0.000000000000000    
_COSMOES=  0.000000000000000    
_COSMOEDS=  0.000000000000000    
_COSMOEC=  0.000000000000000    
_COSMOEDCORR=  0.000000000000000    
_FEPSI=  1.000000000000000    
_SL_IsMM=  0.000000000000000    
_SL_NSYM=  4.000000000000000    
_SL_System_BitSw=  0.000000000000000    
_SL_Unique_atoms=  0.000000000000000    
_SL_GRAD=  0.000000000000000    
_SL_MAXUPD_Hess=  5.000000000000000    
_SL_N_PRINT_COD=  5.000000000000000    
_SL_PRINT_CODES=  0.000000000000000    
_SL_BasType=  0.000000000000000    
_SL_Energy_Pred=  0.000000000000000    
_SL_New_Coords=  0.000000000000000    
_SL_Total_Nuclea=  0.000000000000000    
_SL_Highest_Mltp=  0.000000000000000    
_SL_Ref_Geom=  0.000000000000000    
_SL_Symmetry_ope=  1.000000000000000    
_SL_agrad=  0.000000000000000    
_SL_GrdMax=  0.000000000000000    
_SL_GrdNorm=  0.000000000000000    
_SL_GrdRMS=  0.000000000000000    
_SL_Hss_Q=  0.000000000000000    
_SL_Hss_X=  0.000000000000000    
_SL_BMxOld=  0.000000000000000    
_SL_KtB=  0.000000000000000    
_SL_TROld=  0.000000000000000    
_SL_No_of_Intern=  0.000000000000000    
_SL_Hess=  0.000000000000000    
_SL_K=  0.000000000000000    
!LATTICE= -1.000000000000000    
!NEWLATTICE=  0.000000000000000    
!LATGRAD_VAR=FALSE
!SEW_LATTICE=  1.000000000000000    
!LOCAL=  0.000000000000000    
!SAVEDOM= -1.000000000000000    
!RESTDOM= -1.000000000000000    
!SAVEDOM_HF= -1.000000000000000    
!RESTDOM_HF= -1.000000000000000    
!HESSREC=  0.000000000000000    
!FREQREC=  0.000000000000000    
!NMODREC=  0.000000000000000    
!GTASKS=  0.000000000000000    
!HTASKS=  0.000000000000000    
!SAVEDOM_EOM= -1.000000000000000    
!RESTDOM_EOM= -1.000000000000000    
!GRADSTATE= -1.000000000000000    
!THRCHG= 0.1000000000000000    
!DEBUG= -1.000000000000000    
!CFIT_CPHF=  0.000000000000000    
!RDOMAUX_CPHF=  3.000000000000000    
!THRAO_CPHF= 0.1000000000000000E-09
!THRMO_CPHF= 0.1000000000000000E-08
!THROV_CPHF= 0.1000000000000000E-11
!THRSW_CPHF= 0.1000000000000000E-09
!THRPROD_CPHF= 0.1000000000000000E-08
!THRAOPR_CPHF= 0.1000000000000000E-11
!CFIT_SCFGRD=  0.000000000000000    
!RDOMAUX_SCFGRD=  5.000000000000000    
!THRAO_SCFGRD= 0.1000000000000000E-09
!THRMO_SCFGRD= 0.1000000000000000E-08
!THROV_SCFGRD= 0.1000000000000000E-11
!THRSW_SCFGRD= 0.1000000000000000E-09
!THRPROD_SCFGRD= 0.1000000000000000E-08
!THRAOPR_SCFGRD= 0.1000000000000000E-11
!LOCFIT_SCF=  0.000000000000000    
!LOCFIT_MP2= -1.000000000000000    
_RIDOM=  0.000000000000000    
!CC2_METHOD=  0.000000000000000    
_BASIS2006=FALSE
_SVDDEL= -1.000000000000000    
_SVDDELA= -1.000000000000000    
_SVDDELP= -1.000000000000000    
_SVDDELF= -1.000000000000000    
_SVDDELS= -1.000000000000000    
_SVDDEL_ABS= -1.000000000000000    
_SVDDELA_ABS= -1.000000000000000    
_SVDDELP_ABS= -1.000000000000000    
_SVDDELF_ABS= -1.000000000000000    
_SVDDELS_ABS= -1.000000000000000    
_MAXBASIS=  0.000000000000000    
!OPT_CONICAL=  0.000000000000000    
!CLEARSP_JGRID=  0.000000000000000    
_GRDHYBR=  0.000000000000000    
_STATEGRAD=  1.000000000000000    
_4EXT_NDISKS=  1.000000000000000    
_C0= 0.9983603591118864    
_C0R= 0.9983448077317557    
!ZMP=  0.000000000000000    
_MAXIT_ZMP=  500.0000000000000    
_MAXDIS_ZMP=  100.0000000000000    
_ACCU_ZMP=  14.00000000000000    
_SHIFTA_ZMP= -100.0000000000000    
!EMBEDFLAG=  1.000000000000000    
!EMBED=FALSE
!EMBED_F12=FALSE
!EMBEDNUC=  0.000000000000000    
_EMBEDENERGY=  0.000000000000000    
_KSPACETIME=  0.000000000000000    
_RSPACETIME=  0.000000000000000    
!EMBED_DFC=FALSE
!NUM_VOIDS=  0.000000000000000    
_IBODY=  0.000000000000000    
_EMBE_TOTAL=  0.000000000000000    
_EMBE_HF=  0.000000000000000    
_EMBE_CORR=  0.000000000000000    
!EMBED_PROJ=FALSE
!EMBED_TRUNC=  0.000000000000000    
!EMB_PROJ_ZMU=  1000000.000000000    
!CORRECTION=  0.000000000000000    
!CORRECTION_HF=  0.000000000000000    
!EMBED_ENERGY=  0.000000000000000    
!EMBED_NAXC=FALSE
!EMBED_AORB=  0.000000000000000    
!EMBED_NACORR=  0.000000000000000    
!EMBED_MP2=FALSE
!EMBED_TRUNC_PERTURBATION=FALSE
!EMBED_FROZEN=  0.000000000000000    
_CHANGE_BASIS=FALSE
_RESTORE_BASIS=FALSE
_FIX_EMBED_GUESS=FALSE
!EDFT=  0.000000000000000    
_IFASTLATGRAD=  0.000000000000000    
_SINDEX=  0.000000000000000    
_AVDOM_OSV=  0.000000000000000    
_AVDOM_PNO=  0.000000000000000    
_AVDOM_PAO=  0.000000000000000    
_AVDOM_LMO=  0.000000000000000    
_CC2OSV_FLAG=  0.000000000000000    
_TMADC2_FLAG=FALSE
_PROPADC2_FLAG=FALSE
_LEN_VirQ=  0.000000000000000    
_GRDCC2LR_FLAG=FALSE
_GRDADC2_FLAG=FALSE
_DMX_CC=  0.000000000000000    
_DMY_CC=  0.000000000000000    
_DMZ_CC=  0.000000000000000    
_DMX_NUC=  0.000000000000000    
_DMY_NUC=  0.000000000000000    
_DMZ_NUC=  2.463963748624000    
R=  5.000000000000000    
GX1=  0.000000000000000    
GY1=  0.000000000000000    
GZ1=-0.6340090628435993    
GX2=  0.000000000000000    
GY2=  0.000000000000000    
GZ2=  4.365990937156401    
_TRDMX=  0.000000000000000    
_TRDMY=  0.000000000000000    
_TRDMZ=  2.092117953336034    
E1= -7.995167980554551    
E2= -7.918193880749791    
E3= -7.879976244985996    
E4= -7.809656219042011    
E5= -7.783388419700366    
E6= -7.756504385462253    
[Atoms] Angs
LI    1    3         0.0000000000        0.0000000000       -0.3355031476
H     2    1         0.0000000000        0.0000000000        2.3103829070
[GTO]
   1 0
 s   11  1.00
  0.5988000000D+04  0.1329999901D-03
  0.8989000000D+03  0.1024999924D-02
  0.2059000000D+03  0.5271999607D-02
  0.5924000000D+02  0.2092899844D-01
  0.1987000000D+02  0.6633999506D-01
  0.7406000000D+01  0.1657749877D+00
  0.2930000000D+01  0.3150379765D+00
  0.1189000000D+01  0.3935229707D+00
  0.4798000000D+00  0.1908699858D+00
  0.7509000000D-01  0.5413999597D-02
  0.2832000000D-01 -0.1327999901D-02
 s   11  1.00
  0.5988000000D+04 -0.2100000605D-04
  0.8989000000D+03 -0.1610000464D-03
  0.2059000000D+03 -0.8200002362D-03
  0.5924000000D+02 -0.3326000958D-02
  0.1987000000D+02 -0.1051900303D-01
  0.7406000000D+01 -0.2809700809D-01
  0.2930000000D+01 -0.5593601611D-01
  0.1189000000D+01 -0.9923702859D-01
  0.4798000000D+00 -0.1121890323D+00
  0.7509000000D-01  0.5678891636D+00
  0.2832000000D-01  0.5303821528D+00
 s   11  1.00
  0.5988000000D+04  0.0000000000D+00
  0.8989000000D+03  0.0000000000D+00
  0.2059000000D+03  0.0000000000D+00
  0.5924000000D+02  0.0000000000D+00
  0.1987000000D+02  0.0000000000D+00
  0.7406000000D+01  0.0000000000D+00
  0.2930000000D+01  0.0000000000D+00
  0.1189000000D+01  0.0000000000D+00
  0.4798000000D+00  0.0000000000D+00
  0.7509000000D-01  0.1000000000D+01
  0.2832000000D-01  0.0000000000D+00
 s   11  1.00
  0.5988000000D+04  0.0000000000D+00
  0.8989000000D+03  0.0000000000D+00
  0.2059000000D+03  0.0000000000D+00
  0.5924000000D+02  0.0000000000D+00
  0.1987000000D+02  0.0000000000D+00
  0.7406000000D+01  0.0000000000D+00
  0.2930000000D+01  0.0000000000D+00
  0.1189000000D+01  0.0000000000D+00
  0.4798000000D+00  0.0000000000D+00
  0.7509000000D-01  0.0000000000D+00
  0.2832000000D-01  0.1000000000D+01
 s    1  1.00
  0.7600000000D-02  0.1000000000D+01
 p    5  1.00
  0.3266000000D+01  0.8630004765D-02
  0.6511000000D+00  0.4753802625D-01
  0.1696000000D+00  0.2097721158D+00
  0.5578000000D-01  0.5285222918D+00
  0.2050000000D-01  0.3827442113D+00
 p    5  1.00
  0.3266000000D+01  0.0000000000D+00
  0.6511000000D+00  0.0000000000D+00
  0.1696000000D+00  0.0000000000D+00
  0.5578000000D-01  0.1000000000D+01
  0.2050000000D-01  0.0000000000D+00
 p    5  1.00
  0.3266000000D+01  0.0000000000D+00
  0.6511000000D+00  0.0000000000D+00
  0.1696000000D+00  0.0000000000D+00
  0.5578000000D-01  0.0000000000D+00
  0.2050000000D-01  0.1000000000D+01
 p    1  1.00
  0.9100000000D-02  0.1000000000D+01
 d    1  1.00
  0.1900000000D+00  0.1000000000D+01
 d    1  1.00
  0.7250000000D-01  0.1000000000D+01
 d    1  1.00
  0.4280000000D-01  0.1000000000D+01
 f    1  1.00
  0.1270000000D+00  0.1000000000D+01
 f    1  1.00
  0.8120000000D-01  0.1000000000D+01
  
   2 0
 s    5  1.00
  0.3387000000D+02  0.6067999217D-02
  0.5095000000D+01  0.4530799416D-01
  0.1159000000D+01  0.2028219738D+00
  0.3258000000D+00  0.5039029350D+00
  0.1027000000D+00  0.3834209505D+00
 s    5  1.00
  0.3387000000D+02  0.0000000000D+00
  0.5095000000D+01  0.0000000000D+00
  0.1159000000D+01  0.0000000000D+00
  0.3258000000D+00  0.1000000000D+01
  0.1027000000D+00  0.0000000000D+00
 s    5  1.00
  0.3387000000D+02  0.0000000000D+00
  0.5095000000D+01  0.0000000000D+00
  0.1159000000D+01  0.0000000000D+00
  0.3258000000D+00  0.0000000000D+00
  0.1027000000D+00  0.1000000000D+01
 s    1  1.00
  0.2526000000D-01  0.1000000000D+01
 p    1  1.00
  0.1407000000D+01  0.1000000000D+01
 p    1  1.00
  0.3880000000D+00  0.1000000000D+01
 p    1  1.00
  0.1020000000D+00  0.1000000000D+01
 d    1  1.00
  0.1057000000D+01  0.1000000000D+01
 d    1  1.00
  0.2470000000D+00  0.1000000000D+01
 
 
[MO]
 Sym=      1.1
 Ene=      -2.5899
 Spin= Alpha
 Occup=    1.996775
1 0.99746179832655
2 -0.005487012522497
3 0.008774850613455
4 0.003665494974312
5 0.000204302969817
6 0.0
7 0.0
8 -0.002311991163724
9 0.0
10 0.0
11 0.008623522725415
12 0.0
13 0.0
14 -0.001120496560910
15 0.0
16 0.0
17 0.000648415784280
18 0.000011711047465
19 0.000011711047465
20 -0.000023422094930
21 0.0
22 0.0
23 0.0
24 -0.002286615258458
25 -0.002286615258458
26 0.004573230516916
27 0.0
28 0.0
29 0.0
30 0.000399026433342
31 0.000399026433342
32 -0.000798052866684
33 0.0
34 0.0
35 0.0
36 0.0
37 0.0
38 0.000505745240804
39 0.0
40 0.0
41 -0.000339264221320
42 0.0
43 0.0
44 -0.000339264221320
45 0.0
46 0.0
47 0.0
48 0.001279539097719
49 0.0
50 0.0
51 -0.000858340920710
52 0.0
53 0.0
54 -0.000858340920710
55 0.0
56 -0.000536991250292
57 0.001806656996051
58 -0.008467684932981
59 -0.000104840711278
60 0.0
61 0.0
62 -0.000015353119200
63 0.0
64 0.0
65 -0.000019452344664
66 0.0
67 0.0
68 0.004249112532262
69 -0.000031645535743
70 -0.000031645535743
71 0.000063291071487
72 0.0
73 0.0
74 0.0
75 0.000192191276325
76 0.000192191276325
77 -0.000384382552650
78 0.0
79 0.0
80 0.0
 Sym=      2.1
 Ene=      -0.2597
 Spin= Alpha
 Occup=    1.070024
1 -0.006940188907952
2 0.10715515692529
3 -0.004156511373119
4 -0.091026007569692
5 -0.002793849393907
6 0.0
7 0.0
8 0.17467309352330
9 0.0
10 0.0
11 -0.068953874266839
12 0.0
13 0.0
14 -0.074348953781017
15 0.0
16 0.0
17 0.001016729113170
18 -0.006104400855616
19 -0.006104400855616
20 0.012208801711232
21 0.0
22 0.0
23 0.0
24 -0.001397263378481
25 -0.001397263378481
26 0.002794526756961
27 0.0
28 0.0
29 0.0
30 0.004858527284891
31 0.004858527284891
32 -0.009717054569782
33 0.0
34 0.0
35 0.0
36 0.0
37 0.0
38 0.011782785926579
39 0.0
40 0.0
41 -0.007904133088848
42 0.0
43 0.0
44 -0.007904133088848
45 0.0
46 0.0
47 0.0
48 -0.009757778056268
49 0.0
50 0.0
51 0.006545716512951
52 0.0
53 0.0
54 0.006545716512951
55 0.0
56 0.95156759629655
57 -0.005433031600505
58 0.012851143627611
59 0.041229168942540
60 0.0
61 0.0
62 -0.000798546845543
63 0.0
64 0.0
65 -0.015286260807248
66 0.0
67 0.0
68 -0.030051605611886
69 -0.000183002641389
70 -0.000183002641389
71 0.000366005282777
72 0.0
73 0.0
74 0.0
75 -0.003412393809890
76 -0.003412393809890
77 0.006824787619779
78 0.0
79 0.0
80 0.0
 Sym=      3.1
 Ene=      -0.0369
 Spin= Alpha
 Occup=    0.100311
1 -0.040855822003369
2 0.72754639588277
3 0.075974044586652
4 0.13138116608222
5 0.027990474041390
6 0.0
7 0.0
8 -0.47307486288073
9 0.0
10 0.0
11 -0.008464998150933
12 0.0
13 0.0
14 0.067839530293213
15 0.0
16 0.0
17 0.007488796441632
18 0.001749270385180
19 0.001749270385180
20 -0.003498540770360
21 0.0
22 0.0
23 0.0
24 0.006420518136428
25 0.006420518136428
26 -0.012841036272856
27 0.0
28 0.0
29 0.0
30 0.009431994287325
31 0.009431994287325
32 -0.018863988574649
33 0.0
34 0.0
35 0.0
36 0.0
37 0.0
38 0.000149631346651
39 0.0
40 0.0
41 -0.000100375758803
42 0.0
43 0.0
44 -0.000100375758803
45 0.0
46 0.0
47 0.0
48 -0.005804804069631
49 0.0
50 0.0
51 0.003893980948729
52 0.0
53 0.0
54 0.003893980948729
55 0.0
56 -0.027236717660756
57 0.007647251636170
58 -0.018792639949217
59 -0.084545343004092
60 0.0
61 0.0
62 -0.000362800152785
63 0.0
64 0.0
65 0.001155241180889
66 0.0
67 0.0
68 -0.007453871459425
69 0.000038533238307
70 0.000038533238307
71 -0.000077066476614
72 0.0
73 0.0
74 0.0
75 -0.000186210393336
76 -0.000186210393336
77 0.000372420786671
78 0.0
79 0.0
80 0.0
 Sym=      1.2
 Ene=       0.0225
 Spin= Alpha
 Occup=    0.100222
1 0.0
2 0.0
3 0.0
4 0.0
5 0.0
6 -0.82128560334396
7 0.0
8 0.0
9 0.10812441321955
10 0.0
11 0.0
12 -0.45255968453893
13 0.0
14 0.0
15 0.36122704508666
16 0.0
17 0.0
18 0.0
19 0.0
20 0.0
21 0.0
22 -0.046734865203181
23 0.0
24 0.0
25 0.0
26 0.0
27 0.0
28 0.21369024041349
29 0.0
30 0.0
31 0.0
32 0.0
33 0.0
34 -0.60566921607729
35 0.0
36 -0.005311764981255
37 0.0
38 0.0
39 -0.002375493515718
40 0.0
41 0.0
42 0.009501974062871
43 0.0
44 0.0
45 0.0
46 0.005150665738532
47 0.0
48 0.0
49 0.002303447744147
50 0.0
51 0.0
52 -0.009213790976589
53 0.0
54 0.0
55 0.0
56 0.0
57 0.0
58 0.0
59 0.0
60 -0.000338986595798
61 0.0
62 0.0
63 -0.000190161681812
64 0.0
65 0.0
66 0.030920535258350
67 0.0
68 0.0
69 0.0
70 0.0
71 0.0
72 0.0
73 -0.000357466238580
74 0.0
75 0.0
76 0.0
77 0.0
78 0.0
79 0.003947178269305
80 0.0
 Sym=      1.3
 Ene=       0.0225
 Spin= Alpha
 Occup=    0.100222
1 0.0
2 0.0
3 0.0
4 0.0
5 0.0
6 0.0
7 -0.82128563863586
8 0.0
9 0.0
10 0.10812444319070
11 0.0
12 0.0
13 -0.45255964267525
14 0.0
15 0.0
16 0.36122700131141
17 0.0
18 0.0
19 0.0
20 0.0
21 0.0
22 0.0
23 -0.046734867154590
24 0.0
25 0.0
26 0.0
27 0.0
28 0.0
29 0.21369025033965
30 0.0
31 0.0
32 0.0
33 0.0
34 0.0
35 -0.60566925328686
36 0.0
37 -0.005311774322107
38 0.0
39 0.0
40 -0.002375497693074
41 0.0
42 0.0
43 0.009501990772295
44 0.0
45 0.0
46 0.0
47 0.005150684052365
48 0.0
49 0.0
50 0.002303455934343
51 0.0
52 0.0
53 -0.009213823737370
54 0.0
55 0.0
56 0.0
57 0.0
58 0.0
59 0.0
60 0.0
61 -0.000338990900459
62 0.0
63 0.0
64 -0.000190161696662
65 0.0
66 0.0
67 0.030920542916892
68 0.0
69 0.0
70 0.0
71 0.0
72 0.0
73 0.0
74 -0.000357465911327
75 0.0
76 0.0
77 0.0
78 0.0
79 0.0
80 0.003947177402270
 Sym=      3.3
 Ene=       0.0372
 Spin= Alpha
 Occup=    0.100000
1 0.0
2 0.0
3 0.0
4 0.0
5 0.0
6 0.0
7 0.17306440852492
8 0.0
9 0.0
10 -0.26551982177572
11 0.0
12 0.0
13 1.23687362092275
14 0.0
15 0.0
16 -1.61732089391397
17 0.0
18 0.0
19 0.0
20 0.0
21 0.0
22 0.0
23 -0.049810380060773
24 0.0
25 0.0
26 0.0
27 0.0
28 0.0
29 0.21787431573501
30 0.0
31 0.0
32 0.0
33 0.0
34 0.0
35 -0.62575880764343
36 0.0
37 -0.002184699565472
38 0.0
39 0.0
40 -0.000977027347762
41 0.0
42 0.0
43 0.003908109391048
44 0.0
45 0.0
46 0.0
47 0.000515348304670
48 0.0
49 0.0
50 0.000230470768266
51 0.0
52 0.0
53 -0.000921883073066
54 0.0
55 0.0
56 0.0
57 0.0
58 0.0
59 0.0
60 0.0
61 -0.000176402896987
62 0.0
63 0.0
64 -0.000044500834959
65 0.0
66 0.0
67 0.009975062739882
68 0.0
69 0.0
70 0.0
71 0.0
72 0.0
73 0.0
74 -0.000230880860415
75 0.0
76 0.0
77 0.0
78 0.0
79 0.0
80 0.002851369176467
 Sym=      3.2
 Ene=       0.0372
 Spin= Alpha
 Occup=    0.100000
1 0.0
2 0.0
3 0.0
4 0.0
5 0.0
6 0.17306441262705
7 0.0
8 0.0
9 -0.26551975194980
10 0.0
11 0.0
12 1.23687347641519
13 0.0
14 0.0
15 -1.61732066492338
16 0.0
17 0.0
18 0.0
19 0.0
20 0.0
21 0.0
22 -0.049810439042115
23 0.0
24 0.0
25 0.0
26 0.0
27 0.0
28 0.21787447823627
29 0.0
30 0.0
31 0.0
32 0.0
33 0.0
34 -0.62575918127734
35 0.0
36 -0.002184726524874
37 0.0
38 0.0
39 -0.000977039404373
40 0.0
41 0.0
42 0.003908157617492
43 0.0
44 0.0
45 0.0
46 0.000515370127550
47 0.0
48 0.0
49 0.000230480527755
50 0.0
51 0.0
52 -0.000921922111019
53 0.0
54 0.0
55 0.0
56 0.0
57 0.0
58 0.0
59 0.0
60 -0.000176401838051
61 0.0
62 0.0
63 -0.000044505913876
64 0.0
65 0.0
66 0.009975111749035
67 0.0
68 0.0
69 0.0
70 0.0
71 0.0
72 0.0
73 -0.000230881002763
74 0.0
75 0.0
76 0.0
77 0.0
78 0.0
79 0.002851376977470
80 0.0
 Sym=      2.2
 Ene=       0.0512
 Spin= Alpha
 Occup=    0.100003
1 0.0
2 0.0
3 0.0
4 0.0
5 0.0
6 -0.14941489854175
7 0.0
8 0.0
9 -0.018247145421855
10 0.0
11 0.0
12 0.11455911536094
13 0.0
14 0.0
15 -0.62109942641479
16 0.0
17 0.0
18 0.0
19 0.0
20 0.0
21 0.0
22 0.084350538380487
23 0.0
24 0.0
25 0.0
26 0.0
27 0.0
28 -0.37018379607901
29 0.0
30 0.0
31 0.0
32 0.0
33 0.0
34 1.07634023137382
35 0.0
36 0.007149555962151
37 0.0
38 0.0
39 0.003197378628062
40 0.0
41 0.0
42 -0.012789514512247
43 0.0
44 0.0
45 0.0
46 -0.007641938598634
47 0.0
48 0.0
49 -0.003417578837285
50 0.0
51 0.0
52 0.013670315349140
53 0.0
54 0.0
55 0.0
56 0.0
57 0.0
58 0.0
59 0.0
60 -0.000309393892693
61 0.0
62 0.0
63 0.003742196048844
64 0.0
65 0.0
66 -0.037212058525712
67 0.0
68 0.0
69 0.0
70 0.0
71 0.0
72 0.0
73 0.000754091536222
74 0.0
75 0.0
76 0.0
77 0.0
78 0.0
79 -0.008160517865465
80 0.0
 Sym=      2.3
 Ene=       0.0512
 Spin= Alpha
 Occup=    0.100003
1 0.0
2 0.0
3 0.0
4 0.0
5 0.0
6 0.0
7 -0.14941499911742
8 0.0
9 0.0
10 -0.018247032742159
11 0.0
12 0.0
13 0.11455877270717
14 0.0
15 0.0
16 -0.62109896860484
17 0.0
18 0.0
19 0.0
20 0.0
21 0.0
22 0.0
23 0.084350551001269
24 0.0
25 0.0
26 0.0
27 0.0
28 0.0
29 -0.37018380337800
30 0.0
31 0.0
32 0.0
33 0.0
34 0.0
35 1.07634035811077
36 0.0
37 0.007149561372766
38 0.0
39 0.0
40 0.003197381047762
41 0.0
42 0.0
43 -0.012789524191048
44 0.0
45 0.0
46 0.0
47 -0.007641948879340
48 0.0
49 0.0
50 -0.003417583434956
51 0.0
52 0.0
53 0.013670333739825
54 0.0
55 0.0
56 0.0
57 0.0
58 0.0
59 0.0
60 0.0
61 -0.000309394202020
62 0.0
63 0.0
64 0.003742194270171
65 0.0
66 0.0
67 -0.037212060562557
68 0.0
69 0.0
70 0.0
71 0.0
72 0.0
73 0.0
74 0.000754093282950
75 0.0
76 0.0
77 0.0
78 0.0
79 0.0
80 -0.008160513027678
 Sym=      4.3
 Ene=       0.1079
 Spin= Alpha
 Occup=    0.099851
1 0.0
2 0.0
3 0.0
4 0.0
5 0.0
6 0.0
7 -1.25066106689760
8 0.0
9 0.0
10 -0.59068879512526
11 0.0
12 0.0
13 2.59756624361795
14 0.0
15 0.0
16 -0.94564433543713
17 0.0
18 0.0
19 0.0
20 0.0
21 0.0
22 0.0
23 0.013607026432957
24 0.0
25 0.0
26 0.0
27 0.0
28 0.0
29 -0.058870932848464
30 0.0
31 0.0
32 0.0
33 0.0
34 0.0
35 0.16392811225607
36 0.0
37 0.004452000547518
38 0.0
39 0.0
40 0.001990995172023
41 0.0
42 0.0
43 -0.007963980688093
44 0.0
45 0.0
46 0.0
47 -0.007768747911149
48 0.0
49 0.0
50 -0.003474289685878
51 0.0
52 0.0
53 0.013897158743510
54 0.0
55 0.0
56 0.0
57 0.0
58 0.0
59 0.0
60 0.0
61 -0.000570692453588
62 0.0
63 0.0
64 0.003504583785657
65 0.0
66 0.0
67 -0.015375145992260
68 0.0
69 0.0
70 0.0
71 0.0
72 0.0
73 0.0
74 0.000617731275444
75 0.0
76 0.0
77 0.0
78 0.0
79 0.0
80 -0.004409943196922
 Sym=      4.2
 Ene=       0.1079
 Spin= Alpha
 Occup=    0.099851
1 0.0
2 0.0
3 0.0
4 0.0
5 0.0
6 -1.25066106580373
7 0.0
8 0.0
9 -0.59068879608605
10 0.0
11 0.0
12 2.59756628852692
13 0.0
14 0.0
15 -0.94564439382760
16 0.0
17 0.0
18 0.0
19 0.0
20 0.0
21 0.0
22 0.013607030745999
23 0.0
24 0.0
25 0.0
26 0.0
27 0.0
28 -0.058870936161534
29 0.0
30 0.0
31 0.0
32 0.0
33 0.0
34 0.16392810030655
35 0.0
36 0.004451986777656
37 0.0
38 0.0
39 0.001990989013954
40 0.0
41 0.0
42 -0.007963956055815
43 0.0
44 0.0
45 0.0
46 -0.007768728879232
47 0.0
48 0.0
49 -0.003474281174546
50 0.0
51 0.0
52 0.013897124698182
53 0.0
54 0.0
55 0.0
56 0.0
57 0.0
58 0.0
59 0.0
60 -0.000570693768037
61 0.0
62 0.0
63 0.003504589533331
64 0.0
65 0.0
66 -0.015375150198979
67 0.0
68 0.0
69 0.0
70 0.0
71 0.0
72 0.0
73 0.000617737926623
74 0.0
75 0.0
76 0.0
77 0.0
78 0.0
79 -0.004409935621227
80 0.0
 Sym=      4.1
 Ene=       0.1386
 Spin= Alpha
 Occup=    0.027714
1 -0.075172236952025
2 0.18045393240686
3 0.18432911724898
4 0.039933548029519
5 -0.057463243077629
6 0.0
7 0.0
8 0.95721211073328
9 0.0
10 0.0
11 0.015395710717993
12 0.0
13 0.0
14 -0.17233515843912
15 0.0
16 0.0
17 -0.035444074363220
18 -0.004427318368509
19 -0.004427318368509
20 0.008854636737017
21 0.0
22 0.0
23 0.0
24 -0.011443575716379
25 -0.011443575716379
26 0.022887151432759
27 0.0
28 0.0
29 0.0
30 -0.046032701302859
31 -0.046032701302859
32 0.092065402605718
33 0.0
34 0.0
35 0.0
36 0.0
37 0.0
38 -0.015110469422196
39 0.0
40 0.0
41 0.010136411039989
42 0.0
43 0.0
44 0.010136411039989
45 0.0
46 0.0
47 0.0
48 0.027136083149111
49 0.0
50 0.0
51 -0.018203437969349
52 0.0
53 0.0
54 -0.018203437969349
55 0.0
56 -0.78846039085371
57 -0.15007411126530
58 0.28793969555964
59 0.24353449950274
60 0.0
61 0.0
62 0.000430752953914
63 0.0
64 0.0
65 0.010116769879007
66 0.0
67 0.0
68 0.034896496247049
69 -0.000433983571429
70 -0.000433983571429
71 0.000867967142858
72 0.0
73 0.0
74 0.0
75 -0.000515520615544
76 -0.000515520615544
77 0.001031041231087
78 0.0
79 0.0
80 0.0
 Sym=      5.1
 Ene=       2.4768
 Spin= Alpha
 Occup=    0.002905
1 5.41958029632602
2 21.2005670106054
3 -11.2742555933717
4 -10.9019807432031
5 -0.002410380573821
6 0.0
7 0.0
8 0.008968557988235
9 0.0
10 0.0
11 0.75580528298273
12 0.0
13 0.0
14 -0.14562138596210
15 0.0
16 0.0
17 0.057412975678145
18 -0.011499200345477
19 -0.011499200345477
20 0.022998400690954
21 0.0
22 0.0
23 0.0
24 -0.22119375409228
25 -0.22119375409228
26 0.44238750818456
27 0.0
28 0.0
29 0.0
30 0.023717281409204
31 0.023717281409204
32 -0.047434562818408
33 0.0
34 0.0
35 0.0
36 0.0
37 0.0
38 0.071770175135129
39 0.0
40 0.0
41 -0.048144897107764
42 0.0
43 0.0
44 -0.048144897107764
45 0.0
46 0.0
47 0.0
48 0.10208534007494
49 0.0
50 0.0
51 -0.068480927974127
52 0.0
53 0.0
54 -0.068480927974127
55 0.0
56 -0.18673174682228
57 0.18617467969315
58 -0.83867425178791
59 -0.057385189458917
60 0.0
61 0.0
62 -0.004500073713512
63 0.0
64 0.0
65 0.061556979891292
66 0.0
67 0.0
68 0.54438222564753
69 -0.005999630686372
70 -0.005999630686372
71 0.011999261372744
72 0.0
73 0.0
74 0.0
75 0.051408501391701
76 0.051408501391701
77 -0.10281700278340
78 0.0
79 0.0
80 0.0
 Sym=      6.1
 Ene=       0.3788
 Spin= Alpha
 Occup=    0.001936
1 -0.96001852763933
2 -3.96167445598892
3 1.89029141314282
4 2.57405471089839
5 -0.009424018877334
6 0.0
7 0.0
8 -0.72860974756725
9 0.0
10 0.0
11 0.35648401756160
12 0.0
13 0.0
14 0.59132971322831
15 0.0
16 0.0
17 -0.062465052333791
18 0.047761689526557
19 0.047761689526557
20 -0.095523379053114
21 0.0
22 0.0
23 0.0
24 0.070973687503558
25 0.070973687503558
26 -0.14194737500712
27 0.0
28 0.0
29 0.0
30 -0.079705147538621
31 -0.079705147538621
32 0.15941029507724
33 0.0
34 0.0
35 0.0
36 0.0
37 0.0
38 -0.097943465931638
39 0.0
40 0.0
41 0.065702474332523
42 0.0
43 0.0
44 0.065702474332523
45 0.0
46 0.0
47 0.0
48 0.035205727301532
49 0.0
50 0.0
51 -0.023616719833064
52 0.0
53 0.0
54 -0.023616719833064
55 0.0
56 -0.076637754523814
57 -0.12457192032333
58 0.23451437964118
59 -0.059972417769098
60 0.0
61 0.0
62 0.029355401951783
63 0.0
64 0.0
65 0.39287425988895
66 0.0
67 0.0
68 0.44800307513544
69 0.004454015075193
70 0.004454015075193
71 -0.008908030150385
72 0.0
73 0.0
74 0.0
75 0.044227967989663
76 0.044227967989663
77 -0.088455935979326
78 0.0
79 0.0
80 0.0
 Sym=      7.1
 Ene=       0.6137
 Spin= Alpha
 Occup=    0.000110
1 0.35241485504406
2 1.73437898605174
3 -0.015390142823386
4 -1.02341462846190
5 0.077213390337989
6 0.0
7 0.0
8 6.76427987186349
9 0.0
10 0.0
11 -4.29995313677582
12 0.0
13 0.0
14 -2.23624866113238
15 0.0
16 0.0
17 -0.15021603196597
18 -0.18390037962090
19 -0.18390037962090
20 0.36780075924180
21 0.0
22 0.0
23 0.0
24 -0.078212563914282
25 -0.078212563914282
26 0.15642512782856
27 0.0
28 0.0
29 0.0
30 0.12795196399156
31 0.12795196399156
32 -0.25590392798312
33 0.0
34 0.0
35 0.0
36 0.0
37 0.0
38 0.47675888934941
39 0.0
40 0.0
41 -0.31981958563878
42 0.0
43 0.0
44 -0.31981958563878
45 0.0
46 0.0
47 0.0
48 -0.49794004296798
49 0.0
50 0.0
51 0.33402833543867
52 0.0
53 0.0
54 0.33402833543867
55 0.0
56 0.045144389046819
57 0.41776399536373
58 -0.68870784260324
59 -0.25590448923110
60 0.0
61 0.0
62 -0.012453156289638
63 0.0
64 0.0
65 0.096353592971481
66 0.0
67 0.0
68 1.02990194410228
69 -0.052890319740850
70 -0.052890319740850
71 0.10578063948170
72 0.0
73 0.0
74 0.0
75 0.30635019621985
76 0.30635019621985
77 -0.61270039243969
78 0.0
79 0.0
80 0.0
 Sym=      8.1
 Ene=       0.5828
 Spin= Alpha