[Molden Format]
[Molpro variables]
_NUMVAR=  893.0000000000000    
_AVOGAD= 0.6022136736000000E+24
_BOLTZ= 0.1380658000000000E-22
_CLIGHT=  29979245800.00000    
_EV= 0.3674932379085202E-01
_ENULL= 0.8854187817000000E-11
_KJOULE= 0.3808798324128737E-03
_KJOULE/MOL= 0.3808798324128737E-03
_CM= 0.4556335267302901E-05
_CM-1= 0.4556335267302901E-05
_DEB2SI= 0.3335641000000000E-29
_AMU2AU=  1822.888390000000    
_KCAL= 0.1593601117815568E-02
_KCAL/MOL= 0.1593601117815568E-02
_KELVIN= 0.3166811411060229E-05
_JOULE= 0.4359748200000000E-17
_HERTZ= 0.1519829846004524E-15
_HZ= 0.1519829846004524E-15
_JPCAL=  4.184000000000000    
_PLANCK= 0.6626075540000000E-33
_TOA= 0.5291772109200000    
_TOANG= 0.5291772109200000    
_TORAD= 0.1745329251994330E-01
_TOCM=  219474.6306700000    
_TODEBYE=  2.541580000000000    
_TOE= 0.4803242000000000E-09
_TOEV=  27.21138505000000    
_TOHERTZ=  6579683920729000.    
_TOHZ=  6579683920729000.    
_TOK=  315775.0400000000    
_TOKCAL=  627.5096000000000    
_TOKELVIN=  315775.0400000000    
_TOKJ=  2625.500000000000    
_TOKJOULE=  2625.500000000000    
_TOKG= 0.1660565586000000E-26
_ANG=  1.889726124565062    
_ANGSTROM=  1.889726124565062    
_RPAREF=  0.000000000000000    
_RPADISS=  0.000000000000000    
_IGNORE_UNDEF=  2.000000000000000    
_STRICTCHECK=  0.000000000000000    
_SEW_ONEEL=  0.000000000000000    
_CPPDONE=FALSE
_DKROLL_DONE=  0.000000000000000    
_FOCKDONE=TRUE
_GRADONE=FALSE
_HESSDONE=FALSE
_INTDONE=TRUE
_SCFDONE=TRUE
_MODUL_BLOCK=FALSE
_MODUL_CUDA=FALSE
_MODUL_SLATER=FALSE
_MODUL_MRCC=FALSE
_MODUL_NBO6=FALSE
_MODUL_NECI=TRUE
_MODUL_AIMS=TRUE
_MRCC_EXEC=
_FITC_AO_SAVED=FALSE
_FITC_MO_SAVED=FALSE
_SHARED_FS=TRUE
_LSTYP=SEWARD
_INTYP=INTS
_GEOMTYP=ZMAT
_GRADTYP=ALASKA
_DIRECT=FALSE
_DKHO= -1.000000000000000    
_SYNCM=  0.000000000000000    
_BASIS=USERDEF
_ZORIENT=  1.000000000000000    
_NELEC=  4.000000000000000    
!SPIN=  0.000000000000000    
_QSDSTEP=  0.000000000000000    
_QSDIRC=  0.000000000000000    
_PROGRAM=RHF-SCF
_CPUSTEP= 0.2000000000000002    
_SYSSTEP= 0.4000000000000004E-01
_WALLSTEP= 0.3200000000000000    
!DFSCF=  0.000000000000000    
!SCSGRD=  0.000000000000000    
_BASINP=  610.0000000000000    
_CPUTOT=  1.140000000000000    
_CPUSORT= 0.2600000000000002    
_SYSSORT= 0.7999999999999996E-01
_WALLSORT=  2.309999998658895    
_DFTEXFAC=  1.000000000000000    
_DMX=  0.000000000000000    
_DMY=  0.000000000000000    
_DMZ= -2.365300325592350    
_DMX_SCF=  0.000000000000000    
_DMY_SCF=  0.000000000000000    
_DMZ_SCF= -2.365300325592350    
_EHOMO=-0.3013559743538420    
_ELUMO=-0.7899268784529546E-02
_EIGS= -2.446347702429639    
_ENERGY= -7.986812972320140    
_ENERGY_METHOD=RHF
_ENERGY_BASIS=USERDEF
_GEOMETRY_METHOD=
_GEOMETRY_BASIS=
_ENUC= 0.9933774834437086    
_GRADEXFAC=  9999.000000000000    
_GRADMETHOD=  1.000000000000000    
_NMRMETHOD=  0.000000000000000    
_NMRMAGNET=  0.000000000000000    
!GRID_FREEZE= -1.000000000000000    
_ITERATIONS=  8.000000000000000    
_LASTNELEC=  4.000000000000000    
_LASTSPIN=  0.000000000000000    
_LASTSYM=  1.000000000000000    
_MPP_PROG=  1.000000000000000    
_MSNSTATES=  0.000000000000000    
_RS2PHASE=  0.000000000000000    
_NPROC_MPP=  31.00000000000000    
_NPROC_MPPX=  31.00000000000000    
_NPROC_SMP=  1.000000000000000    
_NUMSTEP=  0.000000000000000    
_ORBITAL=  2100.200000000000    
_PI=  3.141592653589793    
_SEIG_MIN= 0.8744256469928387E-04
_SEWPROP=TRUE
_STATUS=  1.000000000000000    
_SYSTOT= 0.2600000000000000    
_VERSION=  2015001.000000000    
_WALLTOT=  6.120000000000000    
_DATE=11-Apr-20
_LASTORB=RHF
_MACHINE= 64 bit mpp version
_OUTPUT=/global/cscratch1/sd/rbello/Quantum_Chem/molpro.xml
_PGROUP=C2v
_TIME=14:34:37
_LIBMOL=/global/common/cori/software/molpro/2015/molprop_2015_1_linux_x86_64_i8/lib/
_VIGRDC=  0.000000000000000    
!VIBCNT=  0.000000000000000    
!RGHFCNT=  0.000000000000000    
!SURFREC=  0.000000000000000    
!ROTREC=  0.000000000000000    
!POLYREC=  0.000000000000000    
!DIPREC=  0.000000000000000    
!DIP4DREC=  0.000000000000000    
!DIPROT=  0.000000000000000    
!DIP4DROT=  0.000000000000000    
!PTREC=  0.000000000000000    
!PT4DREC=  0.000000000000000    
!VSCFREC=  0.000000000000000    
!VCIREC=  0.000000000000000    
!PVCIREC=  0.000000000000000    
!VMP2REC=  0.000000000000000    
!VMCSCFREC=  0.000000000000000    
!VMRCIREC=  0.000000000000000    
!VIBSTATEREC=  0.000000000000000    
!VIBSTATECNT=  0.000000000000000    
!VIBINFO=  0.000000000000000    
!GAREC=  0.000000000000000    
!SCFORB=  21002.00000000000    
!NEWMOL= -1.000000000000000    
!NEWSYM= -1.000000000000000    
_SLFILES=slscratch
_NGSSTO=  9.000000000000000    
_SIN=SIN
_COS=COS
_TAN=TAN
_ACOS=ACOS
_ASIN=ASIN
_ATAN=ATAN
_COSH=COSH
_SINH=SINH
_TANH=TANH
_ABS=ABS
_MOD=MOD
_ERF=ERF
_REFC=REFC
_ERFC=ERFC
_HYPOT=HYPOT
_J0=J0
_J1=J1
_JN=JN
_GAMMA=GAMMA
_LGAMMA=LGAMMA
_Y0=Y0
_Y1=Y1
_YN=YN
_EXP=EXP
_LOG=LOG
_LOG10=LOG10
_SQRT=SQRT
_INT=INT
_NINT=NINT
_MAX=MAX
_MIN=MIN
_COSMO=  0.000000000000000    
_COSMOIT=  0.000000000000000    
_COSMOES=  0.000000000000000    
_COSMOEDS=  0.000000000000000    
_COSMOEC=  0.000000000000000    
_COSMOEDCORR=  0.000000000000000    
_FEPSI=  1.000000000000000    
_SL_IsMM=  0.000000000000000    
_SL_NSYM=  4.000000000000000    
_SL_System_BitSw=  0.000000000000000    
_SL_Unique_atoms=  0.000000000000000    
_SL_GRAD=  0.000000000000000    
_SL_MAXUPD_Hess=  5.000000000000000    
_SL_N_PRINT_COD=  5.000000000000000    
_SL_PRINT_CODES=  0.000000000000000    
_SL_BasType=  0.000000000000000    
_SL_Energy_Pred=  0.000000000000000    
_SL_New_Coords=  0.000000000000000    
_SL_Total_Nuclea=  0.000000000000000    
_SL_Highest_Mltp=  0.000000000000000    
_SL_Ref_Geom=  0.000000000000000    
_SL_Symmetry_ope=  1.000000000000000    
_SL_agrad=  0.000000000000000    
_SL_GrdMax=  0.000000000000000    
_SL_GrdNorm=  0.000000000000000    
_SL_GrdRMS=  0.000000000000000    
_SL_Hss_Q=  0.000000000000000    
_SL_Hss_X=  0.000000000000000    
_SL_BMxOld=  0.000000000000000    
_SL_KtB=  0.000000000000000    
_SL_TROld=  0.000000000000000    
_SL_No_of_Intern=  0.000000000000000    
_SL_Hess=  0.000000000000000    
_SL_K=  0.000000000000000    
!LATTICE= -1.000000000000000    
!NEWLATTICE=  0.000000000000000    
!LATGRAD_VAR=FALSE
!SEW_LATTICE=  1.000000000000000    
!LOCAL=  0.000000000000000    
!SAVEDOM= -1.000000000000000    
!RESTDOM= -1.000000000000000    
!SAVEDOM_HF= -1.000000000000000    
!RESTDOM_HF= -1.000000000000000    
!HESSREC=  0.000000000000000    
!FREQREC=  0.000000000000000    
!NMODREC=  0.000000000000000    
!GTASKS=  0.000000000000000    
!HTASKS=  0.000000000000000    
!SAVEDOM_EOM= -1.000000000000000    
!RESTDOM_EOM= -1.000000000000000    
!GRADSTATE= -1.000000000000000    
!THRCHG= 0.1000000000000000    
!DEBUG= -1.000000000000000    
!CFIT_CPHF=  0.000000000000000    
!RDOMAUX_CPHF=  3.000000000000000    
!THRAO_CPHF= 0.1000000000000000E-09
!THRMO_CPHF= 0.1000000000000000E-08
!THROV_CPHF= 0.1000000000000000E-11
!THRSW_CPHF= 0.1000000000000000E-09
!THRPROD_CPHF= 0.1000000000000000E-08
!THRAOPR_CPHF= 0.1000000000000000E-11
!CFIT_SCFGRD=  0.000000000000000    
!RDOMAUX_SCFGRD=  5.000000000000000    
!THRAO_SCFGRD= 0.1000000000000000E-09
!THRMO_SCFGRD= 0.1000000000000000E-08
!THROV_SCFGRD= 0.1000000000000000E-11
!THRSW_SCFGRD= 0.1000000000000000E-09
!THRPROD_SCFGRD= 0.1000000000000000E-08
!THRAOPR_SCFGRD= 0.1000000000000000E-11
!LOCFIT_SCF=  0.000000000000000    
!LOCFIT_MP2= -1.000000000000000    
_RIDOM=  0.000000000000000    
!CC2_METHOD=  0.000000000000000    
_BASIS2006=FALSE
_SVDDEL= -1.000000000000000    
_SVDDELA= -1.000000000000000    
_SVDDELP= -1.000000000000000    
_SVDDELF= -1.000000000000000    
_SVDDELS= -1.000000000000000    
_SVDDEL_ABS= -1.000000000000000    
_SVDDELA_ABS= -1.000000000000000    
_SVDDELP_ABS= -1.000000000000000    
_SVDDELF_ABS= -1.000000000000000    
_SVDDELS_ABS= -1.000000000000000    
_MAXBASIS=  0.000000000000000    
!OPT_CONICAL=  0.000000000000000    
!CLEARSP_JGRID=  0.000000000000000    
_GRDHYBR=  0.000000000000000    
_STATEGRAD=  1.000000000000000    
_4EXT_NDISKS=  1.000000000000000    
!ZMP=  0.000000000000000    
_MAXIT_ZMP=  500.0000000000000    
_MAXDIS_ZMP=  100.0000000000000    
_ACCU_ZMP=  14.00000000000000    
_SHIFTA_ZMP= -100.0000000000000    
!EMBEDFLAG=  1.000000000000000    
!EMBED=FALSE
!EMBED_F12=FALSE
!EMBEDNUC=  0.000000000000000    
_EMBEDENERGY=  0.000000000000000    
_KSPACETIME=  0.000000000000000    
_RSPACETIME=  0.000000000000000    
!EMBED_DFC=FALSE
!NUM_VOIDS=  0.000000000000000    
_IBODY=  0.000000000000000    
_EMBE_TOTAL=  0.000000000000000    
_EMBE_HF=  0.000000000000000    
_EMBE_CORR=  0.000000000000000    
!EMBED_PROJ=FALSE
!EMBED_TRUNC=  0.000000000000000    
!EMB_PROJ_ZMU=  1000000.000000000    
!CORRECTION=  0.000000000000000    
!CORRECTION_HF=  0.000000000000000    
!EMBED_ENERGY=  0.000000000000000    
!EMBED_NAXC=FALSE
!EMBED_AORB=  0.000000000000000    
!EMBED_NACORR=  0.000000000000000    
!EMBED_MP2=FALSE
!EMBED_TRUNC_PERTURBATION=FALSE
!EMBED_FROZEN=  0.000000000000000    
_CHANGE_BASIS=FALSE
_RESTORE_BASIS=FALSE
_FIX_EMBED_GUESS=FALSE
!EDFT=  0.000000000000000    
_IFASTLATGRAD=  0.000000000000000    
_SINDEX=  0.000000000000000    
_AVDOM_OSV=  0.000000000000000    
_AVDOM_PNO=  0.000000000000000    
_AVDOM_PAO=  0.000000000000000    
_AVDOM_LMO=  0.000000000000000    
_CC2OSV_FLAG=  0.000000000000000    
_TMADC2_FLAG=FALSE
_PROPADC2_FLAG=FALSE
_LEN_VirQ=  0.000000000000000    
_GRDCC2LR_FLAG=FALSE
_GRDADC2_FLAG=FALSE
R=  3.020000000000000    
ACCU=  13.00000000000000    
NITORT=  1.000000000000000    
GX1=  0.000000000000000    
GY1=  0.000000000000000    
GZ1=  0.000000000000000    
GX2=  0.000000000000000    
GY2=  0.000000000000000    
GZ2=  3.020000000000000    
[Atoms] Angs
LI    1    3         0.0000000000        0.0000000000        0.0000000000
H     2    1         0.0000000000        0.0000000000        1.5981151770
[GTO]
   1 0
 s   11  1.00
  0.5988000000D+04  0.1329999901D-03
  0.8989000000D+03  0.1024999924D-02
  0.2059000000D+03  0.5271999607D-02
  0.5924000000D+02  0.2092899844D-01
  0.1987000000D+02  0.6633999506D-01
  0.7406000000D+01  0.1657749877D+00
  0.2930000000D+01  0.3150379765D+00
  0.1189000000D+01  0.3935229707D+00
  0.4798000000D+00  0.1908699858D+00
  0.7509000000D-01  0.5413999597D-02
  0.2832000000D-01 -0.1327999901D-02
 s   11  1.00
  0.5988000000D+04 -0.2100000605D-04
  0.8989000000D+03 -0.1610000464D-03
  0.2059000000D+03 -0.8200002362D-03
  0.5924000000D+02 -0.3326000958D-02
  0.1987000000D+02 -0.1051900303D-01
  0.7406000000D+01 -0.2809700809D-01
  0.2930000000D+01 -0.5593601611D-01
  0.1189000000D+01 -0.9923702859D-01
  0.4798000000D+00 -0.1121890323D+00
  0.7509000000D-01  0.5678891636D+00
  0.2832000000D-01  0.5303821528D+00
 s   11  1.00
  0.5988000000D+04  0.0000000000D+00
  0.8989000000D+03  0.0000000000D+00
  0.2059000000D+03  0.0000000000D+00
  0.5924000000D+02  0.0000000000D+00
  0.1987000000D+02  0.0000000000D+00
  0.7406000000D+01  0.0000000000D+00
  0.2930000000D+01  0.0000000000D+00
  0.1189000000D+01  0.0000000000D+00
  0.4798000000D+00  0.0000000000D+00
  0.7509000000D-01  0.1000000000D+01
  0.2832000000D-01  0.0000000000D+00
 s   11  1.00
  0.5988000000D+04  0.0000000000D+00
  0.8989000000D+03  0.0000000000D+00
  0.2059000000D+03  0.0000000000D+00
  0.5924000000D+02  0.0000000000D+00
  0.1987000000D+02  0.0000000000D+00
  0.7406000000D+01  0.0000000000D+00
  0.2930000000D+01  0.0000000000D+00
  0.1189000000D+01  0.0000000000D+00
  0.4798000000D+00  0.0000000000D+00
  0.7509000000D-01  0.0000000000D+00
  0.2832000000D-01  0.1000000000D+01
 s    1  1.00
  0.7600000000D-02  0.1000000000D+01
 s    1  1.00
  0.3345973910D-02  0.1000000000D+01
 s    1  1.00
  0.2048422490D-02  0.1000000000D+01
 s    1  1.00
  0.1323642360D-02  0.1000000000D+01
 s    1  1.00
  0.8930957590D-03  0.1000000000D+01
 p    5  1.00
  0.3266000000D+01  0.8630004765D-02
  0.6511000000D+00  0.4753802625D-01
  0.1696000000D+00  0.2097721158D+00
  0.5578000000D-01  0.5285222918D+00
  0.2050000000D-01  0.3827442113D+00
 p    5  1.00
  0.3266000000D+01  0.0000000000D+00
  0.6511000000D+00  0.0000000000D+00
  0.1696000000D+00  0.0000000000D+00
  0.5578000000D-01  0.1000000000D+01
  0.2050000000D-01  0.0000000000D+00
 p    5  1.00
  0.3266000000D+01  0.0000000000D+00
  0.6511000000D+00  0.0000000000D+00
  0.1696000000D+00  0.0000000000D+00
  0.5578000000D-01  0.0000000000D+00
  0.2050000000D-01  0.1000000000D+01
 p    1  1.00
  0.9100000000D-02  0.1000000000D+01
 p    1  1.00
  0.5689360610D-02  0.1000000000D+01
 p    1  1.00
  0.3475679620D-02  0.1000000000D+01
 p    1  1.00
  0.2242058950D-02  0.1000000000D+01
 p    1  1.00
  0.1510639850D-02  0.1000000000D+01
 d    1  1.00
  0.1900000000D+00  0.1000000000D+01
 d    1  1.00
  0.7250000000D-01  0.1000000000D+01
 d    1  1.00
  0.4280000000D-01  0.1000000000D+01
 d    1  1.00
  0.2744569270D-01  0.1000000000D+01
 d    1  1.00
  0.1420439910D-01  0.1000000000D+01
 d    1  1.00
  0.8076593250D-02  0.1000000000D+01
 d    1  1.00
  0.4927186480D-02  0.1000000000D+01
 f    1  1.00
  0.1270000000D+00  0.1000000000D+01
 f    1  1.00
  0.8120000000D-01  0.1000000000D+01
  
   2 0
 s    5  1.00
  0.3387000000D+02  0.6067999217D-02
  0.5095000000D+01  0.4530799416D-01
  0.1159000000D+01  0.2028219738D+00
  0.3258000000D+00  0.5039029350D+00
  0.1027000000D+00  0.3834209505D+00
 s    5  1.00
  0.3387000000D+02  0.0000000000D+00
  0.5095000000D+01  0.0000000000D+00
  0.1159000000D+01  0.0000000000D+00
  0.3258000000D+00  0.1000000000D+01
  0.1027000000D+00  0.0000000000D+00
 s    5  1.00
  0.3387000000D+02  0.0000000000D+00
  0.5095000000D+01  0.0000000000D+00
  0.1159000000D+01  0.0000000000D+00
  0.3258000000D+00  0.0000000000D+00
  0.1027000000D+00  0.1000000000D+01
 s    1  1.00
  0.2526000000D-01  0.1000000000D+01
 p    1  1.00
  0.1407000000D+01  0.1000000000D+01
 p    1  1.00
  0.3880000000D+00  0.1000000000D+01
 p    1  1.00
  0.1020000000D+00  0.1000000000D+01
 d    1  1.00
  0.1057000000D+01  0.1000000000D+01
 d    1  1.00
  0.2470000000D+00  0.1000000000D+01
 
 
[MO]
 Sym=      1.1
 Ene=      -2.4463
 Spin= Alpha
 Occup=    2.000000
1 0.99831154138899
2 -0.004006510305982
3 -0.060341865419082
4 0.013469961353340
5 -0.002377135743909
6 0.005294577492694
7 -0.007276985213814
8 0.005070503875767
9 -0.001495124168766
10 0.0
11 0.0
12 -0.11876913945969
13 0.0
14 0.0
15 0.035963580765998
16 0.0
17 0.0
18 0.064240988528686
19 0.0
20 0.0
21 -0.029250350122999
22 0.0
23 0.0
24 0.039107656690090
25 0.0
26 0.0
27 -0.033026928475979
28 0.0
29 0.0
30 0.019208949655328
31 0.0
32 0.0
33 -0.005338540010655
34 0.004110855449835
35 0.004110855449835
36 -0.008221710899671
37 0.0
38 0.0
39 0.0
40 0.005684323928177
41 0.005684323928178
42 -0.011368647856356
43 0.0
44 0.0
45 0.0
46 -0.002299469009848
47 -0.002299469009850
48 0.004598938019698
49 0.0
50 0.0
51 0.0
52 -0.000000006997981
53 -0.000000006997979
54 0.000000013995961
55 0.0
56 0.0
57 0.0
58 0.000241176814849
59 0.000241176814847
60 -0.000482353629696
61 0.0
62 0.0
63 0.0
64 -0.000227178755808
65 -0.000227178755807
66 0.000454357511616
67 0.0
68 0.0
69 0.0
70 0.000084148253337
71 0.000084148253337
72 -0.000168296506675
73 0.0
74 0.0
75 0.0
76 0.0
77 0.0
78 -0.005224231204501
79 0.0
80 0.0
81 0.003504520831032
82 0.0
83 0.0
84 0.003504520831032
85 0.0
86 0.0
87 0.0
88 0.002076431297275
89 0.0
90 0.0
91 -0.001392912459394
92 0.0
93 0.0
94 -0.001392912459394
95 0.0
96 0.003391582152131
97 0.006313246094317
98 0.061347863926000
99 -0.004094442680967
100 0.0
101 0.0
102 0.000514245745250
103 0.0
104 0.0
105 -0.007282555741467
106 0.0
107 0.0
108 -0.021348253506733
109 -0.000144305314196
110 -0.000144305314196
111 0.000288610628393
112 0.0
113 0.0
114 0.0
115 -0.001349220861389
116 -0.001349220861389
117 0.002698441722778
118 0.0
119 0.0
120 0.0
 Sym=      2.1
 Ene=      -0.3014
 Spin= Alpha
 Occup=    2.000000
1 -0.017064060213845
2 0.60209675059423
3 -0.039944373052290
4 -0.31769603667497
5 -0.042043513814193
6 0.064821059866125
7 -0.080815412699931
8 0.053479021602676
9 -0.015312580424701
10 0.0
11 0.0
12 0.61608054418890
13 0.0
14 0.0
15 -0.20534173386547
16 0.0
17 0.0
18 -0.28671766156844
19 0.0
20 0.0
21 0.046313841402349
22 0.0
23 0.0
24 -0.064955173188291
25 0.0
26 0.0
27 0.057083918102623
28 0.0
29 0.0
30 -0.034058762273236
31 0.0
32 0.0
33 0.009626301184949
34 -0.013657548783334
35 -0.013657548783332
36 0.027315097566666
37 0.0
38 0.0
39 0.0
40 -0.017909480617246
41 -0.017909480617258
42 0.035818961234504
43 0.0
44 0.0
45 0.0
46 0.010598758258779
47 0.010598758258815
48 -0.021197516517594
49 0.0
50 0.0
51 0.0
52 -0.008845253947336
53 -0.008845253947381
54 0.017690507894717
55 0.0
56 0.0
57 0.0
58 0.008613087531889
59 0.008613087531928
60 -0.017226175063817
61 0.0
62 0.0
63 0.0
64 -0.004582959716666
65 -0.004582959716693
66 0.009165919433359
67 0.0
68 0.0
69 0.0
70 0.001449658015247
71 0.001449658015256
72 -0.002899316030504
73 0.0
74 0.0
75 0.0
76 0.0
77 0.0
78 0.015742695522771
79 0.0
80 0.0
81 -0.010560521201399
82 0.0
83 0.0
84 -0.010560521201399
85 0.0
86 0.0
87 0.0
88 -0.003995591564757
89 0.0
90 0.0
91 0.002680324304736
92 0.0
93 0.0
94 0.002680324304736
95 0.0
96 0.70716916267411
97 -0.064774915046635
98 -0.017183674466299
99 0.11501381366673
100 0.0
101 0.0
102 -0.002912943409087
103 0.0
104 0.0
105 -0.012197553651378
106 0.0
107 0.0
108 0.002885203422638
109 -0.000783829138366
110 -0.000783829138366
111 0.001567658276732
112 0.0
113 0.0
114 0.0
115 -0.003098982396791
116 -0.003098982396791
117 0.006197964793583
118 0.0
119 0.0
120 0.0
 Sym=      3.1
 Ene=      -0.0079
 Spin= Alpha
 Occup=    0.000000
1 -0.001967893628774
2 0.24509015093707
3 -0.11458359595021
4 0.088835459230288
5 0.46579812333037
6 -0.11925359426114
7 0.51586304537716
8 -0.31243302124291
9 0.11818146779456
10 0.0
11 0.0
12 -0.27271512388866
13 0.0
14 0.0
15 -0.004416844731325
16 0.0
17 0.0
18 -0.098939593835764
19 0.0
20 0.0
21 -0.15556100592699
22 0.0
23 0.0
24 -0.083862880823104
25 0.0
26 0.0
27 -0.078262056496373
28 0.0
29 0.0
30 -0.021341030020746
31 0.0
32 0.0
33 -0.023313027081839
34 -0.000917794276715
35 -0.000917794276715
36 0.001835588553429
37 0.0
38 0.0
39 0.0
40 -0.003629841454833
41 -0.003629841454833
42 0.007259682909667
43 0.0
44 0.0
45 0.0
46 -0.009808308212797
47 -0.009808308212797
48 0.019616616425595
49 0.0
50 0.0
51 0.0
52 -0.004187605593331
53 -0.004187605593331
54 0.008375211186661
55 0.0
56 0.0
57 0.0
58 -0.025741868649753
59 -0.025741868649753
60 0.051483737299506
61 0.0
62 0.0
63 0.0
64 0.003517688673303
65 0.003517688673303
66 -0.007035377346606
67 0.0
68 0.0
69 0.0
70 -0.023464690549142
71 -0.023464690549142
72 0.046929381098284
73 0.0
74 0.0
75 0.0
76 0.0
77 0.0
78 -0.000175350651344
79 0.0
80 0.0
81 0.000117628792891
82 0.0
83 0.0
84 0.000117628792891
85 0.0
86 0.0
87 0.0
88 -0.000825682277527
89 0.0
90 0.0
91 0.000553884510110
92 0.0
93 0.0
94 0.000553884510110
95 0.0
96 -0.093418115358361
97 0.007678713039896
98 -0.003807004520679
99 -0.025974538697477
100 0.0
101 0.0
102 0.000249445627798
103 0.0
104 0.0
105 0.000338373657232
106 0.0
107 0.0
108 -0.006043020454090
109 0.000137515067128
110 0.000137515067128
111 -0.000275030134256
112 0.0
113 0.0
114 0.0
115 0.000275996659273
116 0.000275996659273
117 -0.000551993318546
118 0.0
119 0.0
120 0.0
 Sym=      4.1
 Ene=       0.0006
 Spin= Alpha
 Occup=    0.000000
1 -0.000185446834065
2 -0.064901148783910
3 0.015857571787553
4 0.075316131974521
5 0.19231177358860
6 -2.08239595667574
7 5.89941906425876
8 -8.95160477815785
9 5.60534064879341
10 0.0
11 0.0
12 0.062045308392264
13 0.0
14 0.0
15 -0.009044627643000
16 0.0
17 0.0
18 0.17218597452700
19 0.0
20 0.0
21 -0.38546843226943
22 0.0
23 0.0
24 1.22665988373936
25 0.0
26 0.0
27 -2.35065060958735
28 0.0
29 0.0
30 3.09048548822847
31 0.0
32 0.0
33 -2.00945935960844
34 0.000248753759958
35 0.000248753759958
36 -0.000497507519916
37 0.0
38 0.0
39 0.0
40 0.005487020604071
41 0.005487020604070
42 -0.010974041208141
43 0.0
44 0.0
45 0.0
46 -0.008315637654276
47 -0.008315637654276
48 0.016631275308551
49 0.0
50 0.0
51 0.0
52 0.011119713403206
53 0.011119713403205
54 -0.022239426806410
55 0.0
56 0.0
57 0.0
58 -0.030183609593137
59 -0.030183609593136
60 0.060367219186272
61 0.0
62 0.0
63 0.0
64 0.053319893846367
65 0.053319893846368
66 -0.10663978769274
67 0.0
68 0.0
69 0.0
70 -0.046713975315348
71 -0.046713975315348
72 0.093427950630695
73 0.0
74 0.0
75 0.0
76 0.0
77 0.0
78 -0.001669285029493
79 0.0
80 0.0
81 0.001119790439931
82 0.0
83 0.0
84 0.001119790439930
85 0.0
86 0.0
87 0.0
88 0.001969772109293
89 0.0
90 0.0
91 -0.001321363300969
92 0.0
93 0.0
94 -0.001321363300969
95 0.0
96 0.020871682443231
97 -0.001537367875890
98 0.012382804198359
99 -0.16978298607173
100 0.0
101 0.0
102 -0.000010437687490
103 0.0
104 0.0
105 -0.000316225157254
106 0.0
107 0.0
108 -0.001256446917630
109 -0.000031705009826
110 -0.000031705009826
111 0.000063410019652
112 0.0
113 0.0
114 0.0
115 -0.000099772856572
116 -0.000099772856572
117 0.000199545713145
118 0.0
119 0.0
120 0.0
 Sym=      1.2
 Ene=       0.0021
 Spin= Alpha
 Occup=    0.000000
1 0.0
2 0.0
3 0.0
4 0.0
5 0.0
6 0.0
7 0.0
8 0.0
9 0.0
10 0.006290176673252
11 0.0
12 0.0
13 0.019840661099566
14 0.0
15 0.0
16 -0.098512982436574
17 0.0
18 0.0
19 0.80920560478063
20 0.0
21 0.0
22 -2.48606910804871
23 0.0
24 0.0
25 5.21533604780194
26 0.0
27 0.0
28 -7.01833649971100
29 0.0
30 0.0
31 4.51264214910628
32 0.0
33 0.0
34 0.0
35 0.0
36 0.0
37 0.0
38 -0.000974376454021
39 0.0
40 0.0
41 0.0
42 0.0
43 0.0
44 0.015551717059970
45 0.0
46 0.0
47 0.0
48 0.0
49 0.0
50 -0.055348889755550
51 0.0
52 0.0
53 0.0
54 0.0
55 0.0
56 0.090460248374395
57 0.0
58 0.0
59 0.0
60 0.0
61 0.0
62 -0.16597537554947
63 0.0
64 0.0
65 0.0
66 0.0
67 0.0
68 0.25619982297080
69 0.0
70 0.0
71 0.0
72 0.0
73 0.0
74 -0.26670843709583
75 0.0
76 0.000052015731442
77 0.0
78 0.0
79 0.000023262142281
80 0.0
81 0.0
82 -0.000093048569123
83 0.0
84 0.0
85 0.0
86 -0.001566631593816
87 0.0
88 0.0
89 -0.000700618947894
90 0.0
91 0.0
92 0.002802475791577
93 0.0
94 0.0
95 0.0
96 0.0
97 0.0
98 0.0
99 0.0
100 0.000059391562095
101 0.0
102 0.0
103 0.000121653953331
104 0.0
105 0.0
106 -0.004872059621359
107 0.0
108 0.0
109 0.0
110 0.0
111 0.0
112 0.0
113 -0.000108492672133
114 0.0
115 0.0
116 0.0
117 0.0
118 0.0
119 0.000736645698848
120 0.0
 Sym=      1.3
 Ene=       0.0021
 Spin= Alpha
 Occup=    0.000000
1 0.0
2 0.0
3 0.0
4 0.0
5 0.0
6 0.0
7 0.0
8 0.0
9 0.0
10 0.0
11 0.006290176673564
12 0.0
13 0.0
14 0.019840661098476
15 0.0
16 0.0
17 -0.098512982432060
18 0.0
19 0.0
20 0.80920560475184
21 0.0
22 0.0
23 -2.48606910797490
24 0.0
25 0.0
26 5.21533604768729
27 0.0
28 0.0
29 -7.01833649960330
30 0.0
31 0.0
32 4.51264214906464
33 0.0
34 0.0
35 0.0
36 0.0
37 0.0
38 0.0
39 -0.000974376454064
40 0.0
41 0.0
42 0.0
43 0.0
44 0.0
45 0.015551717059877
46 0.0
47 0.0
48 0.0
49 0.0
50 0.0
51 -0.055348889755774
52 0.0
53 0.0
54 0.0
55 0.0
56 0.0
57 0.090460248374690
58 0.0
59 0.0
60 0.0
61 0.0
62 0.0
63 -0.16597537554993
64 0.0
65 0.0
66 0.0
67 0.0
68 0.0
69 0.25619982297152
70 0.0
71 0.0
72 0.0
73 0.0
74 0.0
75 -0.26670843709672
76 0.0
77 0.000052015731458
78 0.0
79 0.0
80 0.000023262142288
81 0.0
82 0.0
83 -0.000093048569151
84 0.0
85 0.0
86 0.0
87 -0.001566631593773
88 0.0
89 0.0
90 -0.000700618947875
91 0.0
92 0.0
93 0.002802475791500
94 0.0
95 0.0
96 0.0
97 0.0
98 0.0
99 0.0
100 0.0
101 0.000059391562095
102 0.0
103 0.0
104 0.000121653953334
105 0.0
106 0.0
107 -0.004872059621080
108 0.0
109 0.0
110 0.0
111 0.0
112 0.0
113 0.0
114 -0.000108492672129
115 0.0
116 0.0
117 0.0
118 0.0
119 0.0
120 0.000736645698806
 Sym=      5.1
 Ene=       0.0026
 Spin= Alpha
 Occup=    0.000000
1 -0.000326206835283
2 0.041480219624364
3 0.015373319362171
4 0.11916534456585
5 0.63375798314344
6 -3.46139190519308
7 10.3458674002760
8 -14.3029815156484
9 7.21615035675691
10 0.0
11 0.0
12 -0.035891356482707
13 0.0
14 0.0
15 0.039490433441701
16 0.0
17 0.0
18 -0.036581993807742
19 0.0
20 0.0
21 0.62412664022615
22 0.0
23 0.0
24 -2.04330424588320
25 0.0
26 0.0
27 4.19424139839333
28 0.0
29 0.0
30 -5.72142009379979
31 0.0
32 0.0
33 3.72225978489856
34 0.000656553481704
35 0.000656553481703
36 -0.001313106963407
37 0.0
38 0.0
39 0.0
40 -0.015655827742045
41 -0.015655827742044
42 0.031311655484089
43 0.0
44 0.0
45 0.0
46 0.035930656051294
47 0.035930656051291
48 -0.071861312102585
49 0.0
50 0.0
51 0.0
52 -0.063520530351869
53 -0.063520530351861
54 0.12704106070373
55 0.0
56 0.0
57 0.0
58 0.071227030049118
59 0.071227030049100
60 -0.14245406009822
61 0.0
62 0.0
63 0.0
64 -0.12214757157334
65 -0.12214757157331
66 0.24429514314665
67 0.0
68 0.0
69 0.0
70 0.11582694660143
71 0.11582694660140
72 -0.23165389320283
73 0.0
74 0.0
75 0.0
76 0.0
77 0.0
78 -0.001713847630898
79 0.0
80 0.0
81 0.001149683941730
82 0.0
83 0.0
84 0.001149683941730
85 0.0
86 0.0
87 0.0
88 0.003959127552664
89 0.0
90 0.0
91 -0.002655863501805
92 0.0
93 0.0
94 -0.002655863501805
95 0.0
96 -0.017037550181029
97 0.004380456286167
98 -0.042280759904227
99 -0.21116909274536
100 0.0
101 0.0
102 0.000132565814034
103 0.0
104 0.0
105 -0.000850244065113
106 0.0
107 0.0
108 0.014847584915542
109 -0.000020598689812
110 -0.000020598689812
111 0.000041197379623
112 0.0
113 0.0
114 0.0
115 0.000501269540193
116 0.000501269540192
117 -0.001002539080385
118 0.0
119 0.0
120 0.0
 Sym=      6.1
 Ene=       0.0042
 Spin= Alpha
 Occup=    0.000000
1 0.001758949194494
2 -0.073290317587018
3 0.063169812069289
4 -0.26863096621208
5 -1.09240918723203
6 5.43174090196581
7 -16.2577447211398
8 21.1742527325303
9 -9.24288827440647
10 0.0
11 0.0
12 0.085668335156504
13 0.0
14 0.0
15 0.031721477127970
16 0.0
17 0.0
18 -0.30701145594857
19 0.0
20 0.0
21 1.09095867292426
22 0.0
23 0.0
24 -2.92710912986453
25 0.0
26 0.0
27 5.80122226460786
28 0.0
29 0.0
30 -7.38897754302401
31 0.0
32 0.0
33 3.83183598395100
34 -0.000160687613097
35 -0.000160687613098
36 0.000321375226195
37 0.0
38 0.0
39 0.0
40 -0.003181658482506
41 -0.003181658482506
42 0.006363316965012
43 0.0
44 0.0
45 0.0
46 0.003908561264392
47 0.003908561264393
48 -0.007817122528785
49 0.0
50 0.0
51 0.0
52 0.018239182486521
53 0.018239182486515
54 -0.036478364973036
55 0.0
56 0.0
57 0.0
58 0.027149750580100
59 0.027149750580112
60 -0.054299501160211
61 0.0
62 0.0
63 0.0
64 -0.020718994041838
65 -0.020718994041859
66 0.041437988083697
67 0.0
68 0.0
69 0.0
70 0.016876192406005
71 0.016876192406022
72 -0.033752384812027
73 0.0
74 0.0
75 0.0
76 0.0
77 0.0
78 0.003614648472832
79 0.0
80 0.0
81 -0.002424779910006
82 0.0
83 0.0
84 -0.002424779910006
85 0.0
86 0.0
87 0.0
88 -0.003269018927658
89 0.0
90 0.0
91 0.002192924562593
92 0.0
93 0.0
94 0.002192924562593
95 0.0
96 0.022999039718577
97 -0.001890196587868
98 -0.026691501830686
99 0.42336094153378
100 0.0
101 0.0
102 -0.000172875111410
103 0.0
104 0.0
105 0.000949850007926
106 0.0
107 0.0
108 0.007155104717413
109 -0.000028598274627
110 -0.000028598274627
111 0.000057196549253
112 0.0
113 0.0
114 0.0
115 0.000065611514797
116 0.000065611514797
117 -0.000131223029595
118 0.0
119 0.0
120 0.0
 Sym=      2.2
 Ene=       0.0062
 Spin= Alpha
 Occup=    0.000000
1 0.0
2 0.0
3 0.0
4 0.0
5 0.0
6 0.0
7 0.0
8 0.0
9 0.0
10 0.038803488693433
11 0.0
12 0.0
13 -0.044875630731575
14 0.0
15 0.0
16 0.20313110493332
17 0.0
18 0.0
19 -1.48894453537404
20 0.0
21 0.0
22 4.77893885952220
23 0.0
24 0.0
25 -9.79993347707986
26 0.0
27 0.0
28 12.8852324703835
29 0.0
30 0.0
31 -6.22326252652147
32 0.0
33 0.0
34 0.0
35 0.0
36 0.0
37 0.0
38 -0.005059893579633
39 0.0
40 0.0
41 0.0
42 0.0
43 0.0
44 0.016825153549159
45 0.0
46 0.0
47 0.0
48 0.0
49 0.0
50 -0.10520782011988
51 0.0
52 0.0
53 0.0
54 0.0
55 0.0
56 0.16402230818096
57 0.0
58 0.0
59 0.0
60 0.0
61 0.0
62 -0.31419322231494
63 0.0
64 0.0
65 0.0
66 0.0
67 0.0
68 0.48639130888551
69 0.0
70 0.0
71 0.0
72 0.0
73 0.0
74 -0.57939847844935
75 0.0
76 0.001699204778708
77 0.0
78 0.0
79 0.000759907478577
80 0.0
81 0.0
82 -0.003039629914308
83 0.0
84 0.0
85 0.0
86 -0.000329229120201
87 0.0
88 0.0
89 -0.000147235738588
90 0.0
91 0.0
92 0.000588942954354
93 0.0
94 0.0
95 0.0
96 0.0
97 0.0
98 0.0
99 0.0
100 0.000091358027574
101 0.0
102 0.0
103 0.000707139282240
104 0.0
105 0.0
106 0.012269879849724
107 0.0
108 0.0
109 0.0
110 0.0
111 0.0
112 0.0
113 0.000096898486769
114 0.0
115 0.0
116 0.0
117 0.0
118 0.0
119 -0.002056106814440
120 0.0
 Sym=      2.3
 Ene=       0.0062
 Spin= Alpha
 Occup=    0.000000
1 0.0
2 0.0
3 0.0
4 0.0
5 0.0
6 0.0
7 0.0
8 0.0
9 0.0
10 0.0
11 0.038803488693077
12 0.0
13 0.0
14 -0.044875630729667
15 0.0
16 0.0
17 0.20313110492536
18 0.0
19 0.0
20 -1.48894453532303
21 0.0
22 0.0
23 4.77893885939487
24 0.0
25 0.0
26 -9.79993347689324
27 0.0
28 0.0
29 12.8852324702348
30 0.0
31 0.0
32 -6.22326252647723
33 0.0
34 0.0
35 0.0
36 0.0
37 0.0
38 0.0
39 -0.005059893579576
40 0.0
41 0.0
42 0.0
43 0.0
44 0.0
45 0.016825153549410
46 0.0
47 0.0
48 0.0
49 0.0
50 0.0
51 -0.10520782011994
52 0.0
53 0.0
54 0.0
55 0.0
56 0.0
57 0.16402230818116
58 0.0
59 0.0
60 0.0
61 0.0
62 0.0
63 -0.31419322231571
64 0.0
65 0.0
66 0.0
67 0.0
68 0.0
69 0.48639130888683
70 0.0
71 0.0
72 0.0
73 0.0
74 0.0
75 -0.57939847845122
76 0.0
77 0.001699204778689
78 0.0
79 0.0
80 0.000759907478568
81 0.0
82 0.0
83 -0.003039629914274
84 0.0
85 0.0
86 0.0
87 -0.000329229120292
88 0.0
89 0.0
90 -0.000147235738629
91 0.0
92 0.0
93 0.000588942954517
94 0.0
95 0.0
96 0.0
97 0.0
98 0.0
99 0.0
100 0.0
101 0.000091358027575
102 0.0
103 0.0
104 0.000707139282240
105 0.0
106 0.0
107 0.012269879849244
108 0.0
109 0.0
110 0.0
111 0.0
112 0.0
113 0.0
114 0.000096898486762
115 0.0
116 0.0
117 0.0
118 0.0
119 0.0
120 -0.002056106814369
 Sym=      7.1
 Ene=       0.0073
 Spin= Alpha
 Occup=    0.000000
1 0.000024505687194
2 0.068666171978314
3 -0.095404910122212
4 -0.27055411052883
5 -0.68936483342363
6 5.39379031698313
7 -14.0743935498362
8 15.1337057873872
9 -5.80061565721978
10 0.0
11 0.0