[Molden Format]
[Molpro variables]
_NUMVAR=  900.0000000000000    
_AVOGAD= 0.6022136736000000E+24
_BOLTZ= 0.1380658000000000E-22
_CLIGHT=  29979245800.00000    
_EV= 0.3674932379085202E-01
_ENULL= 0.8854187817000000E-11
_KJOULE= 0.3808798324128737E-03
_KJOULE/MOL= 0.3808798324128737E-03
_CM= 0.4556335267302901E-05
_CM-1= 0.4556335267302901E-05
_DEB2SI= 0.3335641000000000E-29
_AMU2AU=  1822.888390000000    
_KCAL= 0.1593601117815568E-02
_KCAL/MOL= 0.1593601117815568E-02
_KELVIN= 0.3166811411060229E-05
_JOULE= 0.4359748200000000E-17
_HERTZ= 0.1519829846004524E-15
_HZ= 0.1519829846004524E-15
_JPCAL=  4.184000000000000    
_PLANCK= 0.6626075540000000E-33
_TOA= 0.5291772109200000    
_TOANG= 0.5291772109200000    
_TORAD= 0.1745329251994330E-01
_TOCM=  219474.6306700000    
_TODEBYE=  2.541580000000000    
_TOE= 0.4803242000000000E-09
_TOEV=  27.21138505000000    
_TOHERTZ=  6579683920729000.    
_TOHZ=  6579683920729000.    
_TOK=  315775.0400000000    
_TOKCAL=  627.5096000000000    
_TOKELVIN=  315775.0400000000    
_TOKJ=  2625.500000000000    
_TOKJOULE=  2625.500000000000    
_TOKG= 0.1660565586000000E-26
_ANG=  1.889726124565062    
_ANGSTROM=  1.889726124565062    
_RPAREF=  0.000000000000000    
_RPADISS=  0.000000000000000    
_IGNORE_UNDEF=  2.000000000000000    
_STRICTCHECK=  0.000000000000000    
_SEW_ONEEL=  0.000000000000000    
_CPPDONE=FALSE
_DKROLL_DONE=  0.000000000000000    
_FOCKDONE=  0.000000000000000    
_GRADONE=FALSE
_HESSDONE=FALSE
_INTDONE=TRUE
_SCFDONE=FALSE
_MODUL_BLOCK=FALSE
_MODUL_CUDA=FALSE
_MODUL_SLATER=FALSE
_MODUL_MRCC=FALSE
_MODUL_NBO6=FALSE
_MODUL_NECI=TRUE
_MODUL_AIMS=TRUE
_MRCC_EXEC=
_FITC_AO_SAVED=FALSE
_FITC_MO_SAVED=FALSE
_SHARED_FS=TRUE
_LSTYP=SEWARD
_INTYP=INTS
_GEOMTYP=ZMAT
_GRADTYP=ALASKA
_DIRECT=FALSE
_DKHO= -1.000000000000000    
_SYNCM=  0.000000000000000    
_BASIS=USERDEF
_ZORIENT=  1.000000000000000    
_NELEC=  4.000000000000000    
!SPIN=  0.000000000000000    
_QSDSTEP=  0.000000000000000    
_QSDIRC=  0.000000000000000    
_PROGRAM=MULTI
_CPUSTEP=  4.290000000000001    
_SYSSTEP=  1.110000000000000    
_WALLSTEP=  7.310000000000000    
!DFMP2=  0.000000000000000    
!DFSCF=  0.000000000000000    
!DFHFENERG=  0.000000000000000    
!SCSGRD=  0.000000000000000    
_BASINP=  610.0000000000000    
_CPUTOT=  10.73000000000000    
_DFTEXFAC=  1.000000000000000    
_DMX=  0.000000000000000    
_DMY=  0.000000000000000    
_DMZ= -2.770713788328009    
_DMX_SCF=  0.000000000000000    
_DMY_SCF=  0.000000000000000    
_DMZ_SCF= -2.365300325592293    
_EHOMO=-0.3013559743538458    
_ELUMO=-0.7899268784529064E-02
_EIGS= -2.446347702429640    
_ENERGD0= -7.880083699219778    
_ENERGD1= -7.880084159088711    
_ENERGD2= -7.880083758046736    
_ENERGD3= -7.880083728291808    
_ENERGD4= -7.880083787471453    
_ENERGP0= -7.880081274658584    
_ENERGP1= -7.880081504592194    
_ENERGP2= -7.880081304071962    
_ENERGP3= -7.880081289194583    
_ENERGP4= -7.880081318784304    
_ENERGRR= -7.877784779185929    
_ENERGY= -7.983773452242456    
_ENERGY_METHOD=MULTI
_ENERGY_BASIS=USERDEF
_GEOMETRY_METHOD=
_GEOMETRY_BASIS=
_ENUC= 0.6000000000000000    
_GRADEXFAC=  9999.000000000000    
_GRADMETHOD=TRUE
_NMRMETHOD=  0.000000000000000    
_NMRMAGNET=  0.000000000000000    
!GRID_FREEZE= -1.000000000000000    
_ITERATIONS=  8.000000000000000    
_LASTNELEC=  4.000000000000000    
_LASTSPIN=  0.000000000000000    
_LASTSYM=  1.000000000000000    
_MPP_PROG=  1.000000000000000    
_MSNSTATES=  0.000000000000000    
_RS2PHASE=  0.000000000000000    
_NPROC_MPP=  31.00000000000000    
_NPROC_MPPX=  31.00000000000000    
_NPROC_SMP=  1.000000000000000    
_NUMSTEP=  0.000000000000000    
_ORBITAL=  2141.200000000000    
_PI=  3.141592653589793    
_ROOT=  1.000000000000000    
!MCACT=  8.000000000000000    
!MCCLOSED=  0.000000000000000    
!MCFREEZE=  0.000000000000000    
!MCMS2=  0.000000000000000    
!MCNEL=  4.000000000000000    
!MCNSTSYM=  3.000000000000000    
!MCSTATE=  2.000000000000000    
!MCSYM=  1.000000000000000    
!MCWEIGHT= 0.1000000000000000    
_SEIG_MIN= 0.1014385059918353E-03
_SEWPROP=TRUE
_STATUS=  1.000000000000000    
_SYSTOT=  2.670000000000000    
_TROV= 0.9999999999999956    
_VERSION=  2015001.000000000    
_WALLTOT=  18.57000000000000    
_DATE=13-Aug-19
_LASTORB=MCSCF
_MACHINE= 64 bit mpp version
_OUTPUT=/global/cscratch1/sd/rbello/Quantum_Chem/molpro.xml
_PGROUP=C2v
_TIME=23:43:47
_LIBMOL=/global/common/cori/software/molpro/2015/molprop_2015_1_linux_x86_64_i8/lib/
_VIGRDC=  0.000000000000000    
!VIBCNT=  0.000000000000000    
!RGHFCNT=  0.000000000000000    
!SURFREC=  0.000000000000000    
!ROTREC=  0.000000000000000    
!POLYREC=  0.000000000000000    
!DIPREC=  0.000000000000000    
!DIP4DREC=  0.000000000000000    
!DIPROT=  0.000000000000000    
!DIP4DROT=  0.000000000000000    
!PTREC=  0.000000000000000    
!PT4DREC=  0.000000000000000    
!VSCFREC=  0.000000000000000    
!VCIREC=  0.000000000000000    
!PVCIREC=  0.000000000000000    
!VMP2REC=  0.000000000000000    
!VMCSCFREC=  0.000000000000000    
!VMRCIREC=  0.000000000000000    
!VIBSTATEREC=  0.000000000000000    
!VIBSTATECNT=  0.000000000000000    
!VIBINFO=  0.000000000000000    
!GAREC=  0.000000000000000    
!SCFORB=  21002.00000000000    
!MCORB=  21412.00000000000    
!CIOCC=  8.000000000000000    
!CICORE=  0.000000000000000    
!CICLOS=  0.000000000000000    
!CIISTSYM=  2.000000000000000    
!CIISTMS2=  0.000000000000000    
!CIISTNEL=  4.000000000000000    
!NEWMOL= -1.000000000000000    
!NEWSYM= -1.000000000000000    
_SLFILES=slscratch
_NGSSTO=  9.000000000000000    
_SIN=SIN
_COS=COS
_TAN=TAN
_ACOS=ACOS
_ASIN=ASIN
_ATAN=ATAN
_COSH=COSH
_SINH=SINH
_TANH=TANH
_ABS=ABS
_MOD=MOD
_ERF=ERF
_REFC=REFC
_ERFC=ERFC
_HYPOT=HYPOT
_J0=J0
_J1=J1
_JN=JN
_GAMMA=GAMMA
_LGAMMA=LGAMMA
_Y0=Y0
_Y1=Y1
_YN=YN
_EXP=EXP
_LOG=LOG
_LOG10=LOG10
_SQRT=SQRT
_INT=INT
_NINT=NINT
_MAX=MAX
_MIN=MIN
_COSMO=  0.000000000000000    
_COSMOIT=  0.000000000000000    
_COSMOES=  0.000000000000000    
_COSMOEDS=  0.000000000000000    
_COSMOEC=  0.000000000000000    
_COSMOEDCORR=  0.000000000000000    
_FEPSI=  1.000000000000000    
_SL_IsMM=  0.000000000000000    
_SL_NSYM=  4.000000000000000    
_SL_System_BitSw=  0.000000000000000    
_SL_Unique_atoms=  0.000000000000000    
_SL_GRAD=  0.000000000000000    
_SL_MAXUPD_Hess=  5.000000000000000    
_SL_N_PRINT_COD=  5.000000000000000    
_SL_PRINT_CODES=  0.000000000000000    
_SL_BasType=  0.000000000000000    
_SL_Energy_Pred=  0.000000000000000    
_SL_New_Coords=  0.000000000000000    
_SL_Total_Nuclea=  0.000000000000000    
_SL_Highest_Mltp=  0.000000000000000    
_SL_Ref_Geom=  0.000000000000000    
_SL_Symmetry_ope=  1.000000000000000    
_SL_agrad=  0.000000000000000    
_SL_GrdMax=  0.000000000000000    
_SL_GrdNorm=  0.000000000000000    
_SL_GrdRMS=  0.000000000000000    
_SL_Hss_Q=  0.000000000000000    
_SL_Hss_X=  0.000000000000000    
_SL_BMxOld=  0.000000000000000    
_SL_KtB=  0.000000000000000    
_SL_TROld=  0.000000000000000    
_SL_No_of_Intern=  0.000000000000000    
_SL_Hess=  0.000000000000000    
_SL_K=  0.000000000000000    
!LATTICE= -1.000000000000000    
!NEWLATTICE=  0.000000000000000    
!LATGRAD_VAR=FALSE
!SEW_LATTICE=  1.000000000000000    
!LOCAL=  0.000000000000000    
!SAVEDOM= -1.000000000000000    
!RESTDOM= -1.000000000000000    
!SAVEDOM_HF= -1.000000000000000    
!RESTDOM_HF= -1.000000000000000    
!HESSREC=  0.000000000000000    
!FREQREC=  0.000000000000000    
!NMODREC=  0.000000000000000    
!GTASKS=  0.000000000000000    
!HTASKS=  0.000000000000000    
!SAVEDOM_EOM= -1.000000000000000    
!RESTDOM_EOM= -1.000000000000000    
!GRADSTATE= -1.000000000000000    
!THRCHG= 0.1000000000000000    
!DEBUG= -1.000000000000000    
!CFIT_CPHF=  0.000000000000000    
!RDOMAUX_CPHF=  3.000000000000000    
!THRAO_CPHF= 0.1000000000000000E-09
!THRMO_CPHF= 0.1000000000000000E-08
!THROV_CPHF= 0.1000000000000000E-11
!THRSW_CPHF= 0.1000000000000000E-09
!THRPROD_CPHF= 0.1000000000000000E-08
!THRAOPR_CPHF= 0.1000000000000000E-11
!CFIT_SCFGRD=  0.000000000000000    
!RDOMAUX_SCFGRD=  5.000000000000000    
!THRAO_SCFGRD= 0.1000000000000000E-09
!THRMO_SCFGRD= 0.1000000000000000E-08
!THROV_SCFGRD= 0.1000000000000000E-11
!THRSW_SCFGRD= 0.1000000000000000E-09
!THRPROD_SCFGRD= 0.1000000000000000E-08
!THRAOPR_SCFGRD= 0.1000000000000000E-11
!LOCFIT_SCF=  0.000000000000000    
!LOCFIT_MP2= -1.000000000000000    
_RIDOM=  0.000000000000000    
!CC2_METHOD=  0.000000000000000    
_BASIS2006=FALSE
_SVDDEL= -1.000000000000000    
_SVDDELA= -1.000000000000000    
_SVDDELP= -1.000000000000000    
_SVDDELF= -1.000000000000000    
_SVDDELS= -1.000000000000000    
_SVDDEL_ABS= -1.000000000000000    
_SVDDELA_ABS= -1.000000000000000    
_SVDDELP_ABS= -1.000000000000000    
_SVDDELF_ABS= -1.000000000000000    
_SVDDELS_ABS= -1.000000000000000    
_MAXBASIS=  0.000000000000000    
!OPT_CONICAL=  0.000000000000000    
!CLEARSP_JGRID=  0.000000000000000    
_GRDHYBR=  0.000000000000000    
_STATEGRAD=  1.000000000000000    
_4EXT_NDISKS=  1.000000000000000    
_C0= 0.9978780787603324    
_C0R= 0.9978523920020521    
!ZMP=  0.000000000000000    
_MAXIT_ZMP=  500.0000000000000    
_MAXDIS_ZMP=  100.0000000000000    
_ACCU_ZMP=  14.00000000000000    
_SHIFTA_ZMP= -100.0000000000000    
!EMBEDFLAG=  1.000000000000000    
!EMBED=FALSE
!EMBED_F12=FALSE
!EMBEDNUC=  0.000000000000000    
_EMBEDENERGY=  0.000000000000000    
_KSPACETIME=  0.000000000000000    
_RSPACETIME=  0.000000000000000    
!EMBED_DFC=FALSE
!NUM_VOIDS=  0.000000000000000    
_IBODY=  0.000000000000000    
_EMBE_TOTAL=  0.000000000000000    
_EMBE_HF=  0.000000000000000    
_EMBE_CORR=  0.000000000000000    
!EMBED_PROJ=FALSE
!EMBED_TRUNC=  0.000000000000000    
!EMB_PROJ_ZMU=  1000000.000000000    
!CORRECTION=  0.000000000000000    
!CORRECTION_HF=  0.000000000000000    
!EMBED_ENERGY=  0.000000000000000    
!EMBED_NAXC=FALSE
!EMBED_AORB=  0.000000000000000    
!EMBED_NACORR=  0.000000000000000    
!EMBED_MP2=FALSE
!EMBED_TRUNC_PERTURBATION=FALSE
!EMBED_FROZEN=  0.000000000000000    
_CHANGE_BASIS=FALSE
_RESTORE_BASIS=FALSE
_FIX_EMBED_GUESS=FALSE
!EDFT=  0.000000000000000    
_IFASTLATGRAD=  0.000000000000000    
_SINDEX=  0.000000000000000    
_AVDOM_OSV=  0.000000000000000    
_AVDOM_PNO=  0.000000000000000    
_AVDOM_PAO=  0.000000000000000    
_AVDOM_LMO=  0.000000000000000    
_CC2OSV_FLAG=  0.000000000000000    
_TMADC2_FLAG=FALSE
_PROPADC2_FLAG=FALSE
_LEN_VirQ=  0.000000000000000    
_GRDCC2LR_FLAG=FALSE
_GRDADC2_FLAG=FALSE
_DMX_CC=  0.000000000000000    
_DMY_CC=  0.000000000000000    
_DMZ_CC=  0.000000000000000    
_DMX_NUC=  0.000000000000000    
_DMY_NUC=  0.000000000000000    
_DMZ_NUC=  2.463963748624000    
R=  5.000000000000000    
GX1=  0.000000000000000    
GY1=  0.000000000000000    
GZ1=-0.6340090628435993    
GX2=  0.000000000000000    
GY2=  0.000000000000000    
GZ2=  4.365990937156401    
_TRDMX=  0.000000000000000    
_TRDMY=  0.000000000000000    
_TRDMZ=  2.076545982397744    
E1= -7.995273525122330    
E2= -7.918298131743970    
E3= -7.880078850102872    
E4= -7.810482145313720    
E5= -7.808537639756360    
E6= -7.785415081629508    
[Atoms] Angs
LI    1    3         0.0000000000        0.0000000000       -0.3355031476
H     2    1         0.0000000000        0.0000000000        2.3103829070
[GTO]
   1 0
 s   11  1.00
  0.5988000000D+04  0.1329999901D-03
  0.8989000000D+03  0.1024999924D-02
  0.2059000000D+03  0.5271999607D-02
  0.5924000000D+02  0.2092899844D-01
  0.1987000000D+02  0.6633999506D-01
  0.7406000000D+01  0.1657749877D+00
  0.2930000000D+01  0.3150379765D+00
  0.1189000000D+01  0.3935229707D+00
  0.4798000000D+00  0.1908699858D+00
  0.7509000000D-01  0.5413999597D-02
  0.2832000000D-01 -0.1327999901D-02
 s   11  1.00
  0.5988000000D+04 -0.2100000605D-04
  0.8989000000D+03 -0.1610000464D-03
  0.2059000000D+03 -0.8200002362D-03
  0.5924000000D+02 -0.3326000958D-02
  0.1987000000D+02 -0.1051900303D-01
  0.7406000000D+01 -0.2809700809D-01
  0.2930000000D+01 -0.5593601611D-01
  0.1189000000D+01 -0.9923702859D-01
  0.4798000000D+00 -0.1121890323D+00
  0.7509000000D-01  0.5678891636D+00
  0.2832000000D-01  0.5303821528D+00
 s   11  1.00
  0.5988000000D+04  0.0000000000D+00
  0.8989000000D+03  0.0000000000D+00
  0.2059000000D+03  0.0000000000D+00
  0.5924000000D+02  0.0000000000D+00
  0.1987000000D+02  0.0000000000D+00
  0.7406000000D+01  0.0000000000D+00
  0.2930000000D+01  0.0000000000D+00
  0.1189000000D+01  0.0000000000D+00
  0.4798000000D+00  0.0000000000D+00
  0.7509000000D-01  0.1000000000D+01
  0.2832000000D-01  0.0000000000D+00
 s   11  1.00
  0.5988000000D+04  0.0000000000D+00
  0.8989000000D+03  0.0000000000D+00
  0.2059000000D+03  0.0000000000D+00
  0.5924000000D+02  0.0000000000D+00
  0.1987000000D+02  0.0000000000D+00
  0.7406000000D+01  0.0000000000D+00
  0.2930000000D+01  0.0000000000D+00
  0.1189000000D+01  0.0000000000D+00
  0.4798000000D+00  0.0000000000D+00
  0.7509000000D-01  0.0000000000D+00
  0.2832000000D-01  0.1000000000D+01
 s    1  1.00
  0.7600000000D-02  0.1000000000D+01
 s    1  1.00
  0.3345973910D-02  0.1000000000D+01
 s    1  1.00
  0.2048422490D-02  0.1000000000D+01
 s    1  1.00
  0.1323642360D-02  0.1000000000D+01
 s    1  1.00
  0.8930957590D-03  0.1000000000D+01
 p    5  1.00
  0.3266000000D+01  0.8630004765D-02
  0.6511000000D+00  0.4753802625D-01
  0.1696000000D+00  0.2097721158D+00
  0.5578000000D-01  0.5285222918D+00
  0.2050000000D-01  0.3827442113D+00
 p    5  1.00
  0.3266000000D+01  0.0000000000D+00
  0.6511000000D+00  0.0000000000D+00
  0.1696000000D+00  0.0000000000D+00
  0.5578000000D-01  0.1000000000D+01
  0.2050000000D-01  0.0000000000D+00
 p    5  1.00
  0.3266000000D+01  0.0000000000D+00
  0.6511000000D+00  0.0000000000D+00
  0.1696000000D+00  0.0000000000D+00
  0.5578000000D-01  0.0000000000D+00
  0.2050000000D-01  0.1000000000D+01
 p    1  1.00
  0.9100000000D-02  0.1000000000D+01
 p    1  1.00
  0.5689360610D-02  0.1000000000D+01
 p    1  1.00
  0.3475679620D-02  0.1000000000D+01
 p    1  1.00
  0.2242058950D-02  0.1000000000D+01
 p    1  1.00
  0.1510639850D-02  0.1000000000D+01
 d    1  1.00
  0.1900000000D+00  0.1000000000D+01
 d    1  1.00
  0.7250000000D-01  0.1000000000D+01
 d    1  1.00
  0.4280000000D-01  0.1000000000D+01
 d    1  1.00
  0.2744569270D-01  0.1000000000D+01
 d    1  1.00
  0.1420439910D-01  0.1000000000D+01
 d    1  1.00
  0.8076593250D-02  0.1000000000D+01
 d    1  1.00
  0.4927186480D-02  0.1000000000D+01
 f    1  1.00
  0.1270000000D+00  0.1000000000D+01
 f    1  1.00
  0.8120000000D-01  0.1000000000D+01
  
   2 0
 s    5  1.00
  0.3387000000D+02  0.6067999217D-02
  0.5095000000D+01  0.4530799416D-01
  0.1159000000D+01  0.2028219738D+00
  0.3258000000D+00  0.5039029350D+00
  0.1027000000D+00  0.3834209505D+00
 s    5  1.00
  0.3387000000D+02  0.0000000000D+00
  0.5095000000D+01  0.0000000000D+00
  0.1159000000D+01  0.0000000000D+00
  0.3258000000D+00  0.1000000000D+01
  0.1027000000D+00  0.0000000000D+00
 s    5  1.00
  0.3387000000D+02  0.0000000000D+00
  0.5095000000D+01  0.0000000000D+00
  0.1159000000D+01  0.0000000000D+00
  0.3258000000D+00  0.0000000000D+00
  0.1027000000D+00  0.1000000000D+01
 s    1  1.00
  0.2526000000D-01  0.1000000000D+01
 p    1  1.00
  0.1407000000D+01  0.1000000000D+01
 p    1  1.00
  0.3880000000D+00  0.1000000000D+01
 p    1  1.00
  0.1020000000D+00  0.1000000000D+01
 d    1  1.00
  0.1057000000D+01  0.1000000000D+01
 d    1  1.00
  0.2470000000D+00  0.1000000000D+01
 
 
[MO]
 Sym=      1.1
 Ene=      -2.6218
 Spin= Alpha
 Occup=    1.996788
1 0.99785287187624
2 -0.004306620399819
3 0.007873397009460
4 0.003220538349653
5 0.002011208242022
6 -0.004172525937629
7 0.005708074782172
8 -0.003973827520696
9 0.001171967861105
10 0.0
11 0.0
12 -0.002840905645248
13 0.0
14 0.0
15 0.009446544263342
16 0.0
17 0.0
18 -0.002342944576338
19 0.0
20 0.0
21 0.006494013299184
22 0.0
23 0.0
24 -0.008613502791261
25 0.0
26 0.0
27 0.007245310350330
28 0.0
29 0.0
30 -0.004205920051436
31 0.0
32 0.0
33 0.001167674421291
34 -0.000051903578424
35 -0.000051903578424
36 0.000103807156848
37 0.0
38 0.0
39 0.0
40 -0.002054092909121
41 -0.002054092909121
42 0.004108185818241
43 0.0
44 0.0
45 0.0
46 -0.000111720279332
47 -0.000111720279332
48 0.000223440558664
49 0.0
50 0.0
51 0.0
52 0.000515420245564
53 0.000515420245564
54 -0.001030840491128
55 0.0
56 0.0
57 0.0
58 -0.000418638056944
59 -0.000418638056944
60 0.000837276113888
61 0.0
62 0.0
63 0.0
64 0.000215219781120
65 0.000215219781120
66 -0.000430439562240
67 0.0
68 0.0
69 0.0
70 -0.000065916642256
71 -0.000065916642256
72 0.000131833284512
73 0.0
74 0.0
75 0.0
76 0.0
77 0.0
78 0.000537624504131
79 0.0
80 0.0
81 -0.000360649481282
82 0.0
83 0.0
84 -0.000360649481282
85 0.0
86 0.0
87 0.0
88 0.001217715452450
89 0.0
90 0.0
91 -0.000816868358679
92 0.0
93 0.0
94 -0.000816868358679
95 0.0
96 -0.000509576602493
97 0.001692676033191
98 -0.008253288266523
99 -0.001099163556113
100 0.0
101 0.0
102 -0.000004932231793
103 0.0
104 0.0
105 -0.000067413513132
106 0.0
107 0.0
108 0.004385543738660
109 -0.000035738489277
110 -0.000035738489277
111 0.000071476978554
112 0.0
113 0.0
114 0.0
115 0.000208375669638
116 0.000208375669638
117 -0.000416751339276
118 0.0
119 0.0
120 0.0
 Sym=      2.1
 Ene=      -0.2812
 Spin= Alpha
 Occup=    1.071276
1 -0.006682026871277
2 0.11220940265615
3 -0.003649908046723
4 -0.098165715054822
5 0.000921894889736
6 -0.015811798115839
7 0.025175288506624
8 -0.018675060689027
9 0.005688022703274
10 0.0
11 0.0
12 0.17746018788277
13 0.0
14 0.0
15 -0.067711573358515
16 0.0
17 0.0
18 -0.085629805341246
19 0.0
20 0.0
21 0.027980377250723
22 0.0
23 0.0
24 -0.043909502412006
25 0.0
26 0.0
27 0.040402692859870
28 0.0
29 0.0
30 -0.024511081936319
31 0.0
32 0.0
33 0.006974203124602
34 -0.006089455185684
35 -0.006089455185684
36 0.012178910371368
37 0.0
38 0.0
39 0.0
40 -0.003779304393036
41 -0.003779304393036
42 0.007558608786073
43 0.0
44 0.0
45 0.0
46 0.011622659100025
47 0.011622659100025
48 -0.023245318200049
49 0.0
50 0.0
51 0.0
52 -0.007439523795142
53 -0.007439523795142
54 0.014879047590284
55 0.0
56 0.0
57 0.0
58 0.005328865537189
59 0.005328865537189
60 -0.010657731074378
61 0.0
62 0.0
63 0.0
64 -0.002155707098769
65 -0.002155707098769
66 0.004311414197537
67 0.0
68 0.0
69 0.0
70 0.000606714018071
71 0.000606714018071
72 -0.001213428036141
73 0.0
74 0.0
75 0.0
76 0.0
77 0.0
78 0.012815764675929
79 0.0
80 0.0
81 -0.008597076299705
82 0.0
83 0.0
84 -0.008597076299705
85 0.0
86 0.0
87 0.0
88 -0.010877706895195
89 0.0
90 0.0
91 0.007296987617092
92 0.0
93 0.0
94 0.007296987617092
95 0.0
96 0.95020309941572
97 -0.006711727456998
98 0.014615094231044
99 0.044613355336860
100 0.0
101 0.0
102 -0.000923108944988
103 0.0
104 0.0
105 -0.016567502986091
106 0.0
107 0.0
108 -0.034299969071101
109 -0.000200627417815
110 -0.000200627417815
111 0.000401254835631
112 0.0
113 0.0
114 0.0
115 -0.003323333249058
116 -0.003323333249058
117 0.006646666498116
118 0.0
119 0.0
120 0.0
 Sym=      3.1
 Ene=      -0.0609
 Spin= Alpha
 Occup=    0.100291
1 -0.040335687849950
2 0.72801213772724
3 0.075164319095367
4 0.13674845802625
5 0.068525780513625
6 -0.073712296592035
7 0.084506668860443
8 -0.053571508370159
9 0.014984250472600
10 0.0
11 0.0
12 -0.47495599639075
13 0.0
14 0.0
15 -0.001504498567297
16 0.0
17 0.0
18 0.062598774608670
19 0.0
20 0.0
21 0.071047399437032
22 0.0
23 0.0
24 -0.093278595750216
25 0.0
26 0.0
27 0.075446559393279
28 0.0
29 0.0
30 -0.043078731939849
31 0.0
32 0.0
33 0.011892984440759
34 0.001518083264499
35 0.001518083264499
36 -0.003036166528998
37 0.0
38 0.0
39 0.0
40 0.006965022717077
41 0.006965022717077
42 -0.013930045434154
43 0.0
44 0.0
45 0.0
46 0.006159138534123
47 0.006159138534123
48 -0.012318277068247
49 0.0
50 0.0
51 0.0
52 0.003264391087471
53 0.003264391087471
54 -0.006528782174942
55 0.0
56 0.0
57 0.0
58 -0.005715131147225
59 -0.005715131147225
60 0.011430262294450
61 0.0
62 0.0
63 0.0
64 0.003084493274130
65 0.003084493274130
66 -0.006168986548259
67 0.0
68 0.0
69 0.0
70 -0.000903350561647
71 -0.000903350561647
72 0.001806701123294
73 0.0
74 0.0
75 0.0
76 0.0
77 0.0
78 0.000434876214204
79 0.0
80 0.0
81 -0.000291723833027
82 0.0
83 0.0
84 -0.000291723833027
85 0.0
86 0.0
87 0.0
88 -0.005796557107029
89 0.0
90 0.0
91 0.003888448718033
92 0.0
93 0.0
94 0.003888448718033
95 0.0
96 -0.030838594702900
97 0.008612397467941
98 -0.018328229884388
99 -0.10820807238389
100 0.0
101 0.0
102 -0.000384515209931
103 0.0
104 0.0
105 0.001037327820990
106 0.0
107 0.0
108 -0.004754311293965
109 0.000029070999371
110 0.000029070999371
111 -0.000058141998743
112 0.0
113 0.0
114 0.0
115 0.000061606620433
116 0.000061606620433
117 -0.000123213240866
118 0.0
119 0.0
120 0.0
 Sym=      1.2
 Ene=      -0.0116
 Spin= Alpha
 Occup=    0.100105
1 0.0
2 0.0
3 0.0
4 0.0
5 0.0
6 0.0
7 0.0
8 0.0
9 0.0
10 0.75146545048756
11 0.0
12 0.0
13 -0.028003352978308
14 0.0
15 0.0
16 0.074969258771547
17 0.0
18 0.0
19 0.25510970904965
20 0.0
21 0.0
22 0.094652546280262
23 0.0
24 0.0
25 -0.14598896642163
26 0.0
27 0.0
28 -0.11020744557204
29 0.0
30 0.0
31 -0.020720261452854
32 0.0
33 0.0
34 0.0
35 0.0
36 0.0
37 0.0
38 0.003749033708506
39 0.0
40 0.0
41 0.0
42 0.0
43 0.0
44 0.015784212329232
45 0.0
46 0.0
47 0.0
48 0.0
49 0.0
50 0.015828985736987
51 0.0
52 0.0
53 0.0
54 0.0
55 0.0
56 0.097005664553531
57 0.0
58 0.0
59 0.0
60 0.0
61 0.0
62 0.14924530991440
63 0.0
64 0.0
65 0.0
66 0.0
67 0.0
68 0.13543146135518
69 0.0
70 0.0
71 0.0
72 0.0
73 0.0
74 -0.016324880356988
75 0.0
76 0.001054208538798
77 0.0
78 0.0
79 0.000471456391042
80 0.0
81 0.0
82 -0.001885825564170
83 0.0
84 0.0
85 0.0
86 0.000895090241298
87 0.0
88 0.0
89 0.000400296525108
90 0.0
91 0.0
92 -0.001601186100432
93 0.0
94 0.0
95 0.0
96 0.0
97 0.0
98 0.0
99 0.0
100 0.000687148650145
101 0.0
102 0.0
103 -0.002794409029819
104 0.0
105 0.0
106 -0.011183193311291
107 0.0
108 0.0
109 0.0
110 0.0
111 0.0
112 0.0
113 -0.000122870675578
114 0.0
115 0.0
116 0.0
117 0.0
118 0.0
119 0.001677285616344
120 0.0
 Sym=      1.3
 Ene=      -0.0116
 Spin= Alpha
 Occup=    0.100105
1 0.0
2 0.0
3 0.0
4 0.0
5 0.0
6 0.0
7 0.0
8 0.0
9 0.0
10 0.0
11 0.75146653556143
12 0.0
13 0.0
14 -0.028004635264434
15 0.0
16 0.0
17 0.074970722253910
18 0.0
19 0.0
20 0.25510429466288
21 0.0
22 0.0
23 0.094664564086708
24 0.0
25 0.0
26 -0.14600953932870
27 0.0
28 0.0
29 -0.11018712793143
30 0.0
31 0.0
32 -0.020728130327675
33 0.0
34 0.0
35 0.0
36 0.0
37 0.0
38 0.0
39 0.003748942728923
40 0.0
41 0.0
42 0.0
43 0.0
44 0.0
45 0.015784147032002
46 0.0
47 0.0
48 0.0
49 0.0
50 0.0
51 0.015828993048750
52 0.0
53 0.0
54 0.0
55 0.0
56 0.0
57 0.097006373034053
58 0.0
59 0.0
60 0.0
61 0.0
62 0.0
63 0.14924498414473
64 0.0
65 0.0
66 0.0
67 0.0
68 0.0
69 0.13543154992592
70 0.0
71 0.0
72 0.0
73 0.0
74 0.0
75 -0.016325044818145
76 0.0
77 0.001054323628934
78 0.0
79 0.0
80 0.000471507860916
81 0.0
82 0.0
83 -0.001886031443664
84 0.0
85 0.0
86 0.0
87 0.000894948665182
88 0.0
89 0.0
90 0.000400233210344
91 0.0
92 0.0
93 -0.001600932841376
94 0.0
95 0.0
96 0.0
97 0.0
98 0.0
99 0.0
100 0.0
101 0.000687174308049
102 0.0
103 0.0
104 -0.002794385577846
105 0.0
106 0.0
107 -0.011183251667875
108 0.0
109 0.0
110 0.0
111 0.0
112 0.0
113 0.0
114 -0.000122850856440
115 0.0
116 0.0
117 0.0
118 0.0
119 0.0
120 0.001677535896867
 Sym=      3.3
 Ene=       0.0060
 Spin= Alpha
 Occup=    0.100000
1 0.0
2 0.0
3 0.0
4 0.0
5 0.0
6 0.0
7 0.0
8 0.0
9 0.0
10 0.0
11 0.009277910772331
12 0.0
13 0.0
14 0.017554079244521
15 0.0
16 0.0
17 -0.070293710203106
18 0.0
19 0.0
20 -0.49982684533926
21 0.0
22 0.0
23 0.12271485691066
24 0.0
25 0.0
26 0.49313531082102
27 0.0
28 0.0
29 0.54353938216568
30 0.0
31 0.0
32 0.057611578159549
33 0.0
34 0.0
35 0.0
36 0.0
37 0.0
38 0.0
39 0.004225473651445
40 0.0
41 0.0
42 0.0
43 0.0
44 0.0
45 0.006705201765119
46 0.0
47 0.0
48 0.0
49 0.0
50 0.0
51 0.043900554264104
52 0.0
53 0.0
54 0.0
55 0.0
56 0.0
57 0.011403016899658
58 0.0
59 0.0
60 0.0
61 0.0
62 0.0
63 0.19892936659374
64 0.0
65 0.0
66 0.0
67 0.0
68 0.0
69 -0.043287883209294
70 0.0
71 0.0
72 0.0
73 0.0
74 0.0
75 0.28613107875824
76 0.0
77 0.000181687346502
78 0.0
79 0.0
80 0.000081253051486
81 0.0
82 0.0
83 -0.000325012205943
84 0.0
85 0.0
86 0.0
87 0.000439984265722
88 0.0
89 0.0
90 0.000196766945437
91 0.0
92 0.0
93 -0.000787067781747
94 0.0
95 0.0
96 0.0
97 0.0
98 0.0
99 0.0
100 0.0
101 0.000146909853489
102 0.0
103 0.0
104 -0.000554675485623
105 0.0
106 0.0
107 -0.001671013547618
108 0.0
109 0.0
110 0.0
111 0.0
112 0.0
113 0.0
114 -0.000011729285037
115 0.0
116 0.0
117 0.0
118 0.0
119 0.0
120 0.000350487135732
 Sym=      3.2
 Ene=       0.0060
 Spin= Alpha
 Occup=    0.100000
1 0.0
2 0.0
3 0.0
4 0.0
5 0.0
6 0.0
7 0.0
8 0.0
9 0.0
10 0.009278072055627
11 0.0
12 0.0
13 0.017553379160770
14 0.0
15 0.0
16 -0.070291350190123
17 0.0
18 0.0
19 -0.49983670238104
20 0.0
21 0.0
22 0.12273279795995
23 0.0
24 0.0
25 0.49311620366738
26 0.0
27 0.0
28 0.54355050411615
29 0.0
30 0.0
31 0.057608804408902
32 0.0
33 0.0
34 0.0
35 0.0
36 0.0
37 0.0
38 0.004225489085869
39 0.0
40 0.0
41 0.0
42 0.0
43 0.0
44 0.006705340772745
45 0.0
46 0.0
47 0.0
48 0.0
49 0.0
50 0.043899967489023
51 0.0
52 0.0
53 0.0
54 0.0
55 0.0
56 0.011404960686918
57 0.0
58 0.0
59 0.0
60 0.0
61 0.0
62 0.19892655030868
63 0.0
64 0.0
65 0.0
66 0.0
67 0.0
68 -0.043284540130607
69 0.0
70 0.0
71 0.0
72 0.0
73 0.0
74 0.28613047850463
75 0.0
76 0.000181606364570
77 0.0
78 0.0
79 0.000081216835265
80 0.0
81 0.0
82 -0.000324867341061
83 0.0
84 0.0
85 0.0
86 0.000440132650803
87 0.0
88 0.0
89 0.000196833305263
90 0.0
91 0.0
92 -0.000787333221051
93 0.0
94 0.0
95 0.0
96 0.0
97 0.0
98 0.0
99 0.0
100 0.000146902218450
101 0.0
102 0.0
103 -0.000554668526646
104 0.0
105 0.0
106 -0.001670995258274
107 0.0
108 0.0
109 0.0
110 0.0
111 0.0
112 0.0
113 -0.000011723533128
114 0.0
115 0.0
116 0.0
117 0.0
118 0.0
119 0.000350459215530
120 0.0
 Sym=      2.2
 Ene=       0.0125
 Spin= Alpha
 Occup=    0.100001
1 0.0
2 0.0
3 0.0
4 0.0
5 0.0
6 0.0
7 0.0
8 0.0
9 0.0
10 0.017514630170771
11 0.0
12 0.0
13 -0.018129177006896
14 0.0
15 0.0
16 0.044901430153817
17 0.0
18 0.0
19 0.25783196527778
20 0.0
21 0.0
22 0.072999215282657
23 0.0
24 0.0
25 0.21211225214807
26 0.0
27 0.0
28 0.035930633384321
29 0.0
30 0.0
31 0.024668411449408
32 0.0
33 0.0
34 0.0
35 0.0
36 0.0
37 0.0
38 -0.010567637522494
39 0.0
40 0.0
41 0.0
42 0.0
43 0.0
44 -0.042788124037623
45 0.0
46 0.0
47 0.0
48 0.0
49 0.0
50 -0.044851116797478
51 0.0
52 0.0
53 0.0
54 0.0
55 0.0
56 -0.19157267689250
57 0.0
58 0.0
59 0.0
60 0.0
61 0.0
62 -0.33969454038470
63 0.0
64 0.0
65 0.0
66 0.0
67 0.0
68 -0.24375852982896
69 0.0
70 0.0
71 0.0
72 0.0
73 0.0
74 -0.059393519288546
75 0.0
76 -0.000284561740026
77 0.0
78 0.0
79 -0.000127259878899
80 0.0
81 0.0
82 0.000509039515595
83 0.0
84 0.0
85 0.0
86 -0.001445842601229
87 0.0
88 0.0
89 -0.000646600468223
90 0.0
91 0.0
92 0.002586401872890
93 0.0
94 0.0
95 0.0
96 0.0
97 0.0
98 0.0
99 0.0
100 -0.000388256478168
101 0.0
102 0.0
103 0.001337912727030
104 0.0
105 0.0
106 0.006118213922762
107 0.0
108 0.0
109 0.0
110 0.0
111 0.0
112 0.0
113 0.000045301245440
114 0.0
115 0.0
116 0.0
117 0.0
118 0.0
119 -0.001114105133228
120 0.0
 Sym=      2.3
 Ene=       0.0125
 Spin= Alpha
 Occup=    0.100001
1 0.0
2 0.0
3 0.0
4 0.0
5 0.0
6 0.0
7 0.0
8 0.0
9 0.0
10 0.0
11 0.017515625348478
12 0.0
13 0.0
14 -0.018129977298391
15 0.0
16 0.0
17 0.044901223272728
18 0.0
19 0.0
20 0.25783291737108
21 0.0
22 0.0
23 0.073000877256828
24 0.0
25 0.0
26 0.21210611286288
27 0.0
28 0.0
29 0.035935768529719
30 0.0
31 0.0
32 0.024665934092933
33 0.0
34 0.0
35 0.0
36 0.0
37 0.0
38 0.0
39 -0.010567694805303
40 0.0
41 0.0
42 0.0
43 0.0
44 0.0
45 -0.042787945582501
46 0.0
47 0.0
48 0.0
49 0.0
50 0.0
51 -0.044852455972941
52 0.0
53 0.0
54 0.0
55 0.0
56 0.0
57 -0.19157108471527
58 0.0
59 0.0
60 0.0
61 0.0
62 0.0
63 -0.33969582584069
64 0.0
65 0.0
66 0.0
67 0.0
68 0.0
69 -0.24375805761508
70 0.0
71 0.0
72 0.0
73 0.0
74 0.0
75 -0.059393712274631
76 0.0
77 -0.000284479288597
78 0.0
79 0.0
80 -0.000127223005499
81 0.0
82 0.0
83 0.000508892021995
84 0.0
85 0.0
86 0.0
87 -0.001445892260242
88 0.0
89 0.0
90 -0.000646622676409
91 0.0
92 0.0
93 0.002586490705634
94 0.0
95 0.0
96 0.0
97 0.0
98 0.0
99 0.0
100 0.0
101 -0.000388265725924
102 0.0
103 0.0
104 0.001337990307841
105 0.0
106 0.0
107 0.006118200276638
108 0.0
109 0.0
110 0.0
111 0.0
112 0.0
113 0.0
114 0.000045336534406
115 0.0
116 0.0
117 0.0
118 0.0
119 0.0
120 -0.001114018673110
 Sym=      4.2
 Ene=       0.0335
 Spin= Alpha
 Occup=    0.099934
1 0.0
2 0.0
3 0.0
4 0.0
5 0.0
6 0.0
7 0.0
8 0.0
9 0.0
10 0.99369880927817
11 0.0
12 0.0
13 0.069600826391945
14 0.0
15 0.0
16 -0.16448219044409
17 0.0
18 0.0
19 -1.32683489472446
20 0.0
21 0.0
22 0.20286439961444
23 0.0
24 0.0
25 -0.14721248559823
26 0.0
27 0.0
28 0.61337443325063
29 0.0
30 0.0
31 -0.027269643383837
32 0.0
33 0.0
34 0.0
35 0.0
36 0.0
37 0.0
38 -0.005452186808489
39 0.0
40 0.0
41 0.0
42 0.0
43 0.0
44 -0.025833744273468
45 0.0
46 0.0
47 0.0
48 0.0
49 0.0
50 0.006543797380457
51 0.0
52 0.0
53 0.0
54 0.0
55 0.0
56 -0.11786420162622
57 0.0
58 0.0
59 0.0
60 0.0
61 0.0
62 -0.086814532634452
63 0.0
64 0.0
65 0.0
66 0.0
67 0.0
68 -0.17273999495658
69 0.0
70 0.0
71 0.0
72 0.0
73 0.0
74 0.13920994095709
75 0.0
76 0.000252068014043
77 0.0
78 0.0
79 0.000112728242871
80 0.0
81 0.0
82 -0.000450912971483
83 0.0
84 0.0
85 0.0
86 -0.000270932483575
87 0.0
88 0.0
89 -0.000121164690117
90 0.0
91 0.0
92 0.000484658760470
93 0.0
94 0.0
95 0.0
96 0.0
97 0.0
98 0.0
99 0.0
100 -0.000025140263105
101 0.0
102 0.0
103 0.000099620776445
104 0.0
105 0.0
106 -0.005768132291055
107 0.0
108 0.0
109 0.0
110 0.0
111 0.0
112 0.0
113 -0.000108867944288
114 0.0
115 0.0
116 0.0
117 0.0
118 0.0
119 0.000101117299282
120 0.0
 Sym=      4.3
 Ene=       0.0335
 Spin= Alpha
 Occup=    0.099934
1 0.0
2 0.0
3 0.0
4 0.0
5 0.0
6 0.0
7 0.0
8 0.0
9 0.0
10 0.0
11 0.99369862305788
12 0.0
13 0.0
14 0.069601280604132
15 0.0
16 0.0
17 -0.16448387222145