[Molden Format]
[Molpro variables]
_NUMVAR=  887.0000000000000    
_AVOGAD= 0.6022136736000000E+24
_BOLTZ= 0.1380658000000000E-22
_CLIGHT=  29979245800.00000    
_EV= 0.3674932379085202E-01
_ENULL= 0.8854187817000000E-11
_KJOULE= 0.3808798324128737E-03
_KJOULE/MOL= 0.3808798324128737E-03
_CM= 0.4556335267302901E-05
_CM-1= 0.4556335267302901E-05
_DEB2SI= 0.3335641000000000E-29
_AMU2AU=  1822.888390000000    
_KCAL= 0.1593601117815568E-02
_KCAL/MOL= 0.1593601117815568E-02
_KELVIN= 0.3166811411060229E-05
_JOULE= 0.4359748200000000E-17
_HERTZ= 0.1519829846004524E-15
_HZ= 0.1519829846004524E-15
_JPCAL=  4.184000000000000    
_PLANCK= 0.6626075540000000E-33
_TOA= 0.5291772109200000    
_TOANG= 0.5291772109200000    
_TORAD= 0.1745329251994330E-01
_TOCM=  219474.6306700000    
_TODEBYE=  2.541580000000000    
_TOE= 0.4803242000000000E-09
_TOEV=  27.21138505000000    
_TOHERTZ=  6579683920729000.    
_TOHZ=  6579683920729000.    
_TOK=  315775.0400000000    
_TOKCAL=  627.5096000000000    
_TOKELVIN=  315775.0400000000    
_TOKJ=  2625.500000000000    
_TOKJOULE=  2625.500000000000    
_TOKG= 0.1660565586000000E-26
_ANG=  1.889726124565062    
_ANGSTROM=  1.889726124565062    
_RPAREF=  0.000000000000000    
_RPADISS=  0.000000000000000    
_IGNORE_UNDEF=  2.000000000000000    
_STRICTCHECK=  0.000000000000000    
_SEW_ONEEL=  0.000000000000000    
_CPPDONE=FALSE
_DKROLL_DONE=  0.000000000000000    
_FOCKDONE=TRUE
_GRADONE=FALSE
_HESSDONE=FALSE
_INTDONE=TRUE
_SCFDONE=TRUE
_MODUL_BLOCK=FALSE
_MODUL_CUDA=FALSE
_MODUL_SLATER=FALSE
_MODUL_MRCC=FALSE
_MODUL_NBO6=FALSE
_MODUL_NECI=TRUE
_MODUL_AIMS=TRUE
_MRCC_EXEC=
_FITC_AO_SAVED=FALSE
_FITC_MO_SAVED=FALSE
_SHARED_FS=TRUE
_LSTYP=SEWARD
_INTYP=INTS
_GEOMTYP=ZMAT
_GRADTYP=ALASKA
_DIRECT=FALSE
_DKHO= -1.000000000000000    
_SYNCM=  0.000000000000000    
_BASIS=AUG-CC-PVTZ
_ZORIENT=  1.000000000000000    
_NELEC=  12.00000000000000    
!SPIN=  0.000000000000000    
_QSDSTEP=  0.000000000000000    
_QSDIRC=  0.000000000000000    
_PROGRAM=RHF-SCF
_CPUSTEP= 0.8000000000000007E-01
_SYSSTEP= 0.2000000000000002E-01
_WALLSTEP= 0.1300000000000000    
!DFSCF=  0.000000000000000    
!SCSGRD=  0.000000000000000    
_BASINP=  610.0000000000000    
_CPUTOT=  1.330000000000000    
_CPUSORT= 0.2700000000000000    
_SYSSORT= 0.1000000000000001E-01
_WALLSORT= 0.3000000007450581    
_DFTEXFAC=  1.000000000000000    
_DMX=  0.000000000000000    
_DMY=  0.000000000000000    
_DMZ=  0.000000000000000    
_DMX_SCF=  0.000000000000000    
_DMY_SCF=  0.000000000000000    
_DMZ_SCF=  0.000000000000000    
_EHOMO=-0.2530608813082067    
_ELUMO= 0.1596220651893835E-01
_EIGS= -49.03187146712897    
_ENERGY= -199.6133510678037    
_ENERGY_METHOD=RHF
_ENERGY_BASIS=aug-cc-pVTZ
_ENUC=  0.000000000000000    
_GRADEXFAC=  9999.000000000000    
_GRADMETHOD=  1.000000000000000    
_NMRMETHOD=  0.000000000000000    
_NMRMAGNET=  0.000000000000000    
!GRID_FREEZE= -1.000000000000000    
_ITERATIONS=  5.000000000000000    
_LASTNELEC=  12.00000000000000    
_LASTSPIN=  0.000000000000000    
_LASTSYM=  1.000000000000000    
_MPP_PROG=  1.000000000000000    
_MSNSTATES=  0.000000000000000    
_RS2PHASE=  0.000000000000000    
_NPROC_MPP=  30.00000000000000    
_NPROC_MPPX=  30.00000000000000    
_NPROC_SMP=  1.000000000000000    
_NUMSTEP=  0.000000000000000    
_ORBITAL=  2100.200000000000    
_PI=  3.141592653589793    
_SEIG_MIN= 0.3876009104748443E-02
_SEWPROP=TRUE
_STATUS=  1.000000000000000    
_SYSTOT= 0.8200000000000000    
_VERSION=  2015001.000000000    
_WALLTOT=  3.290000000000000    
_DATE=30-Mar-20
_LASTORB=RHF
_MACHINE= 64 bit mpp version
_OUTPUT=/global/cscratch1/sd/rbello/Quantum_Chem/Atomic/molpro.xml
_PGROUP=D2h
_TIME=16:47:09
_LIBMOL=/global/common/cori/software/molpro/2015/molprop_2015_1_linux_x86_64_i8/lib/
_VIGRDC=  0.000000000000000    
!VIBCNT=  0.000000000000000    
!RGHFCNT=  0.000000000000000    
!SURFREC=  0.000000000000000    
!ROTREC=  0.000000000000000    
!POLYREC=  0.000000000000000    
!DIPREC=  0.000000000000000    
!DIP4DREC=  0.000000000000000    
!DIPROT=  0.000000000000000    
!DIP4DROT=  0.000000000000000    
!PTREC=  0.000000000000000    
!PT4DREC=  0.000000000000000    
!VSCFREC=  0.000000000000000    
!VCIREC=  0.000000000000000    
!PVCIREC=  0.000000000000000    
!VMP2REC=  0.000000000000000    
!VMCSCFREC=  0.000000000000000    
!VMRCIREC=  0.000000000000000    
!VIBSTATEREC=  0.000000000000000    
!VIBSTATECNT=  0.000000000000000    
!VIBINFO=  0.000000000000000    
!GAREC=  0.000000000000000    
!SCFORB=  21002.00000000000    
!NEWMOL= -1.000000000000000    
!NEWSYM= -1.000000000000000    
_SLFILES=slscratch
_NGSSTO=  9.000000000000000    
_SIN=SIN
_COS=COS
_TAN=TAN
_ACOS=ACOS
_ASIN=ASIN
_ATAN=ATAN
_COSH=COSH
_SINH=SINH
_TANH=TANH
_ABS=ABS
_MOD=MOD
_ERF=ERF
_REFC=REFC
_ERFC=ERFC
_HYPOT=HYPOT
_J0=J0
_J1=J1
_JN=JN
_GAMMA=GAMMA
_LGAMMA=LGAMMA
_Y0=Y0
_Y1=Y1
_YN=YN
_EXP=EXP
_LOG=LOG
_LOG10=LOG10
_SQRT=SQRT
_INT=INT
_NINT=NINT
_MAX=MAX
_MIN=MIN
_COSMO=  0.000000000000000    
_COSMOIT=  0.000000000000000    
_COSMOES=  0.000000000000000    
_COSMOEDS=  0.000000000000000    
_COSMOEC=  0.000000000000000    
_COSMOEDCORR=  0.000000000000000    
_FEPSI=  1.000000000000000    
_SL_IsMM=  0.000000000000000    
_SL_NSYM=  8.000000000000000    
_SL_System_BitSw=  0.000000000000000    
_SL_Unique_atoms=  0.000000000000000    
_SL_GRAD=  0.000000000000000    
_SL_MAXUPD_Hess=  5.000000000000000    
_SL_N_PRINT_COD=  5.000000000000000    
_SL_PRINT_CODES=  0.000000000000000    
_SL_BasType=  0.000000000000000    
_SL_Energy_Pred=  0.000000000000000    
_SL_New_Coords=  0.000000000000000    
_SL_Total_Nuclea=  0.000000000000000    
_SL_Highest_Mltp=  0.000000000000000    
_SL_Ref_Geom=  0.000000000000000    
_SL_Symmetry_ope=  1.000000000000000    
_SL_agrad=  0.000000000000000    
_SL_GrdMax=  0.000000000000000    
_SL_GrdNorm=  0.000000000000000    
_SL_GrdRMS=  0.000000000000000    
_SL_Hss_Q=  0.000000000000000    
_SL_Hss_X=  0.000000000000000    
_SL_BMxOld=  0.000000000000000    
_SL_KtB=  0.000000000000000    
_SL_TROld=  0.000000000000000    
_SL_No_of_Intern=  0.000000000000000    
_SL_Hess=  0.000000000000000    
_SL_K=  0.000000000000000    
!LATTICE= -1.000000000000000    
!NEWLATTICE=  0.000000000000000    
!LATGRAD_VAR=FALSE
!SEW_LATTICE=  1.000000000000000    
!LOCAL=  0.000000000000000    
!SAVEDOM= -1.000000000000000    
!RESTDOM= -1.000000000000000    
!SAVEDOM_HF= -1.000000000000000    
!RESTDOM_HF= -1.000000000000000    
!HESSREC=  0.000000000000000    
!FREQREC=  0.000000000000000    
!NMODREC=  0.000000000000000    
!GTASKS=  0.000000000000000    
!HTASKS=  0.000000000000000    
!SAVEDOM_EOM= -1.000000000000000    
!RESTDOM_EOM= -1.000000000000000    
!GRADSTATE= -1.000000000000000    
!THRCHG= 0.1000000000000000    
!DEBUG= -1.000000000000000    
!CFIT_CPHF=  0.000000000000000    
!RDOMAUX_CPHF=  3.000000000000000    
!THRAO_CPHF= 0.1000000000000000E-09
!THRMO_CPHF= 0.1000000000000000E-08
!THROV_CPHF= 0.1000000000000000E-11
!THRSW_CPHF= 0.1000000000000000E-09
!THRPROD_CPHF= 0.1000000000000000E-08
!THRAOPR_CPHF= 0.1000000000000000E-11
!CFIT_SCFGRD=  0.000000000000000    
!RDOMAUX_SCFGRD=  5.000000000000000    
!THRAO_SCFGRD= 0.1000000000000000E-09
!THRMO_SCFGRD= 0.1000000000000000E-08
!THROV_SCFGRD= 0.1000000000000000E-11
!THRSW_SCFGRD= 0.1000000000000000E-09
!THRPROD_SCFGRD= 0.1000000000000000E-08
!THRAOPR_SCFGRD= 0.1000000000000000E-11
!LOCFIT_SCF=  0.000000000000000    
!LOCFIT_MP2= -1.000000000000000    
_RIDOM=  0.000000000000000    
!CC2_METHOD=  0.000000000000000    
_BASIS2006=FALSE
_SVDDEL= -1.000000000000000    
_SVDDELA= -1.000000000000000    
_SVDDELP= -1.000000000000000    
_SVDDELF= -1.000000000000000    
_SVDDELS= -1.000000000000000    
_SVDDEL_ABS= -1.000000000000000    
_SVDDELA_ABS= -1.000000000000000    
_SVDDELP_ABS= -1.000000000000000    
_SVDDELF_ABS= -1.000000000000000    
_SVDDELS_ABS= -1.000000000000000    
_MAXBASIS=  0.000000000000000    
!OPT_CONICAL=  0.000000000000000    
!CLEARSP_JGRID=  0.000000000000000    
_GRDHYBR=  0.000000000000000    
_STATEGRAD=  1.000000000000000    
_4EXT_NDISKS=  1.000000000000000    
!ZMP=  0.000000000000000    
_MAXIT_ZMP=  500.0000000000000    
_MAXDIS_ZMP=  100.0000000000000    
_ACCU_ZMP=  14.00000000000000    
_SHIFTA_ZMP= -100.0000000000000    
!EMBEDFLAG=  1.000000000000000    
!EMBED=FALSE
!EMBED_F12=FALSE
!EMBEDNUC=  0.000000000000000    
_EMBEDENERGY=  0.000000000000000    
_KSPACETIME=  0.000000000000000    
_RSPACETIME=  0.000000000000000    
!EMBED_DFC=FALSE
!NUM_VOIDS=  0.000000000000000    
_IBODY=  0.000000000000000    
_EMBE_TOTAL=  0.000000000000000    
_EMBE_HF=  0.000000000000000    
_EMBE_CORR=  0.000000000000000    
!EMBED_PROJ=FALSE
!EMBED_TRUNC=  0.000000000000000    
!EMB_PROJ_ZMU=  1000000.000000000    
!CORRECTION=  0.000000000000000    
!CORRECTION_HF=  0.000000000000000    
!EMBED_ENERGY=  0.000000000000000    
!EMBED_NAXC=FALSE
!EMBED_AORB=  0.000000000000000    
!EMBED_NACORR=  0.000000000000000    
!EMBED_MP2=FALSE
!EMBED_TRUNC_PERTURBATION=FALSE
!EMBED_FROZEN=  0.000000000000000    
_CHANGE_BASIS=FALSE
_RESTORE_BASIS=FALSE
_FIX_EMBED_GUESS=FALSE
!EDFT=  0.000000000000000    
_IFASTLATGRAD=  0.000000000000000    
_SINDEX=  0.000000000000000    
_AVDOM_OSV=  0.000000000000000    
_AVDOM_PNO=  0.000000000000000    
_AVDOM_PAO=  0.000000000000000    
_AVDOM_LMO=  0.000000000000000    
_CC2OSV_FLAG=  0.000000000000000    
_TMADC2_FLAG=FALSE
_PROPADC2_FLAG=FALSE
_LEN_VirQ=  0.000000000000000    
_GRDCC2LR_FLAG=FALSE
_GRDADC2_FLAG=FALSE
GX1=  0.000000000000000    
GY1=  0.000000000000000    
GZ1=  0.000000000000000    
[Atoms] Angs
MG    1   12         0.0000000000        0.0000000000        0.0000000000
[GTO]
   1 0
 s   15  1.00
  0.1649000000D+06  0.7299298512D-04
  0.2471000000D+05  0.5666526608D-03
  0.5628000000D+04  0.2962693455D-02
  0.1596000000D+04  0.1229621434D-01
  0.5210000000D+03  0.4273244983D-01
  0.1880000000D+03  0.1230131435D+00
  0.7301000000D+02  0.2748323205D+00
  0.2990000000D+02  0.4018184686D+00
  0.1254000000D+02  0.2646973087D+00
  0.4306000000D+01  0.3326123879D-01
  0.1826000000D+01 -0.4413355147D-02
  0.7417000000D+00  0.2060242403D-02
  0.1457000000D+00 -0.8384709778D-03
  0.7612000000D-01  0.7081958259D-03
  0.3310000000D-01 -0.2006022339D-03
 s   15  1.00
  0.1649000000D+06 -0.1842481448D-04
  0.2471000000D+05 -0.1435001127D-03
  0.5628000000D+04 -0.7487105882D-03
  0.1596000000D+04 -0.3144072470D-02
  0.5210000000D+03 -0.1104810868D-01
  0.1880000000D+03 -0.3360582640D-01
  0.7301000000D+02 -0.8259466489D-01
  0.2990000000D+02 -0.1593141252D+00
  0.1254000000D+02 -0.1528881201D+00
  0.4306000000D+01  0.1908491499D+00
  0.1826000000D+01  0.5799644557D+00
  0.7417000000D+00  0.3720292923D+00
  0.1457000000D+00  0.2116911663D-01
  0.7612000000D-01 -0.1193440938D-01
  0.3310000000D-01  0.2773292179D-02
 s   15  1.00
  0.1649000000D+06  0.3551759062D-05
  0.2471000000D+05  0.2764199270D-04
  0.5628000000D+04  0.1444039619D-03
  0.1596000000D+04  0.6057438401D-03
  0.5210000000D+03  0.2135269436D-02
  0.1880000000D+03  0.6499338284D-02
  0.7301000000D+02  0.1614459574D-01
  0.2990000000D+02  0.3157659167D-01
  0.1254000000D+02  0.3163739165D-01
  0.4306000000D+01 -0.4391398841D-01
  0.1826000000D+01 -0.1510929601D+00
  0.7417000000D+00 -0.2176679425D+00
  0.1457000000D+00  0.2598069314D+00
  0.7612000000D-01  0.5472448556D+00
  0.3310000000D-01  0.3259099140D+00
 s   15  1.00
  0.1649000000D+06  0.0000000000D+00
  0.2471000000D+05  0.0000000000D+00
  0.5628000000D+04  0.0000000000D+00
  0.1596000000D+04  0.0000000000D+00
  0.5210000000D+03  0.0000000000D+00
  0.1880000000D+03  0.0000000000D+00
  0.7301000000D+02  0.0000000000D+00
  0.2990000000D+02  0.0000000000D+00
  0.1254000000D+02  0.0000000000D+00
  0.4306000000D+01  0.0000000000D+00
  0.1826000000D+01  0.0000000000D+00
  0.7417000000D+00  0.0000000000D+00
  0.1457000000D+00  0.1000000000D+01
  0.7612000000D-01  0.0000000000D+00
  0.3310000000D-01  0.0000000000D+00
 s   15  1.00
  0.1649000000D+06  0.0000000000D+00
  0.2471000000D+05  0.0000000000D+00
  0.5628000000D+04  0.0000000000D+00
  0.1596000000D+04  0.0000000000D+00
  0.5210000000D+03  0.0000000000D+00
  0.1880000000D+03  0.0000000000D+00
  0.7301000000D+02  0.0000000000D+00
  0.2990000000D+02  0.0000000000D+00
  0.1254000000D+02  0.0000000000D+00
  0.4306000000D+01  0.0000000000D+00
  0.1826000000D+01  0.0000000000D+00
  0.7417000000D+00  0.0000000000D+00
  0.1457000000D+00  0.0000000000D+00
  0.7612000000D-01  0.0000000000D+00
  0.3310000000D-01  0.1000000000D+01
 s    1  1.00
  0.1200000000D-01  0.1000000000D+01
 p   10  1.00
  0.3169000000D+03  0.2075319689D-02
  0.7486000000D+02  0.1628689756D-01
  0.2372000000D+02  0.7386968892D-01
  0.8669000000D+01  0.2142969679D+00
  0.3363000000D+01  0.3821539427D+00
  0.1310000000D+01  0.3981779403D+00
  0.4911000000D+00  0.1528779771D+00
  0.2364000000D+00 -0.4375399344D-02
  0.8733000000D-01  0.6295819056D-02
  0.3237000000D-01 -0.1567689765D-02
 p   10  1.00
  0.3169000000D+03 -0.3297272257D-03
  0.7486000000D+02 -0.2587541771D-02
  0.2372000000D+02 -0.1191200816D-01
  0.8669000000D+01 -0.3502272398D-01
  0.3363000000D+01 -0.6399684381D-01
  0.1310000000D+01 -0.7044364823D-01
  0.4911000000D+00 -0.3758362573D-01
  0.2364000000D+00  0.1770431212D+00
  0.8733000000D-01  0.5667073880D+00
  0.3237000000D-01  0.3961432712D+00
 p   10  1.00
  0.3169000000D+03  0.0000000000D+00
  0.7486000000D+02  0.0000000000D+00
  0.2372000000D+02  0.0000000000D+00
  0.8669000000D+01  0.0000000000D+00
  0.3363000000D+01  0.0000000000D+00
  0.1310000000D+01  0.0000000000D+00
  0.4911000000D+00  0.0000000000D+00
  0.2364000000D+00  0.0000000000D+00
  0.8733000000D-01  0.1000000000D+01
  0.3237000000D-01  0.0000000000D+00
 p   10  1.00
  0.3169000000D+03  0.0000000000D+00
  0.7486000000D+02  0.0000000000D+00
  0.2372000000D+02  0.0000000000D+00
  0.8669000000D+01  0.0000000000D+00
  0.3363000000D+01  0.0000000000D+00
  0.1310000000D+01  0.0000000000D+00
  0.4911000000D+00  0.0000000000D+00
  0.2364000000D+00  0.0000000000D+00
  0.8733000000D-01  0.0000000000D+00
  0.3237000000D-01  0.1000000000D+01
 p    1  1.00
  0.9000000000D-02  0.1000000000D+01
 d    1  1.00
  0.2998000000D+00  0.1000000000D+01
 d    1  1.00
  0.1285000000D+00  0.1000000000D+01
 d    1  1.00
  0.4440000000D-01  0.1000000000D+01
 f    1  1.00
  0.2417000000D+00  0.1000000000D+01
 f    1  1.00
  0.8650000000D-01  0.1000000000D+01
 
 
[MO]
 Sym=      1.1
 Ene=     -49.0319
 Spin= Alpha
 Occup=    2.000000
1 1.00000863009581
2 0.000070117365042
3 0.000197472100993
4 -0.000083890043690
5 -0.000198732481828
6 0.000076484037007
7 0.0
8 0.0
9 0.0
10 0.0
11 0.0
12 0.0
13 0.0
14 0.0
15 0.0
16 0.0
17 0.0
18 0.0
19 0.0
20 0.0
21 0.0
22 -0.000000000000335
23 -0.000000000000335
24 0.000000000000670
25 0.0
26 0.0
27 0.0
28 0.000000000001070
29 0.000000000001070
30 -0.000000000002140
31 0.0
32 0.0
33 0.0
34 -0.000000000000176
35 -0.000000000000176
36 0.000000000000352
37 0.0
38 0.0
39 0.0
40 0.0
41 0.0
42 0.0
43 0.0
44 0.0
45 0.0
46 0.0
47 0.0
48 0.0
49 0.0
50 0.0
51 0.0
52 0.0
53 0.0
54 0.0
55 0.0
56 0.0
57 0.0
58 0.0
59 0.0
 Sym=      2.1
 Ene=      -3.7677
 Spin= Alpha
 Occup=    2.000000
1 -0.000083742819884
2 0.99929883198172
3 -0.001986634384055
4 0.000800071427209
5 0.002104526715447
6 -0.000865397050513
7 0.0
8 0.0
9 0.0
10 0.0
11 0.0
12 0.0
13 0.0
14 0.0
15 0.0
16 0.0
17 0.0
18 0.0
19 0.0
20 0.0
21 0.0
22 -0.000000000006167
23 -0.000000000006167
24 0.000000000012334
25 0.0
26 0.0
27 0.0
28 0.000000000007133
29 0.000000000007133
30 -0.000000000014267
31 0.0
32 0.0
33 0.0
34 -0.000000000004298
35 -0.000000000004298
36 0.000000000008595
37 0.0
38 0.0
39 0.0
40 0.0
41 0.0
42 0.0
43 0.0
44 0.0
45 0.0
46 0.0
47 0.0
48 0.0
49 0.0
50 0.0
51 0.0
52 0.0
53 0.0
54 0.0
55 0.0
56 0.0
57 0.0
58 0.0
59 0.0
 Sym=      1.5
 Ene=      -2.2821
 Spin= Alpha
 Occup=    2.000000
1 0.0
2 0.0
3 0.0
4 0.0
5 0.0
6 0.0
7 0.0
8 0.0
9 0.99986373229060
10 0.0
11 0.0
12 -0.000898356682354
13 0.0
14 0.0
15 0.000906327822821
16 0.0
17 0.0
18 -0.000221007635927
19 0.0
20 0.0
21 0.000543876973232
22 0.0
23 0.0
24 0.0
25 0.0
26 0.0
27 0.0
28 0.0
29 0.0
30 0.0
31 0.0
32 0.0
33 0.0
34 0.0
35 0.0
36 0.0
37 0.0
38 0.0
39 0.0
40 0.0
41 0.0
42 0.000000000000217
43 0.0
44 0.0
45 -0.000000000000146
46 0.0
47 0.0
48 -0.000000000000146
49 0.0
50 0.0
51 0.0
52 -0.000000000000117
53 0.0
54 0.0
55 0.000000000000079
56 0.0
57 0.0
58 0.000000000000079
59 0.0
 Sym=      1.3
 Ene=      -2.2821
 Spin= Alpha
 Occup=    2.000000
1 0.0
2 0.0
3 0.0
4 0.0
5 0.0
6 0.0
7 0.0
8 0.99986373229003
9 0.0
10 0.0
11 -0.000898356686240
12 0.0
13 0.0
14 0.000906327826083
15 0.0
16 0.0
17 -0.000221007634834
18 0.0
19 0.0
20 0.000543876973339
21 0.0
22 0.0
23 0.0
24 0.0
25 0.0
26 0.0
27 0.0
28 0.0
29 0.0
30 0.0
31 0.0
32 0.0
33 0.0
34 0.0
35 0.0
36 0.0
37 0.0
38 0.0
39 0.0
40 0.0
41 0.000000000011085
42 0.0
43 0.0
44 0.000000000000986
45 0.0
46 0.0
47 -0.000000000015858
48 0.0
49 0.0
50 0.0
51 -0.000000000009639
52 0.0
53 0.0
54 0.000000000003802
55 0.0
56 0.0
57 0.000000000009130
58 0.0
59 0.0
 Sym=      1.2
 Ene=      -2.2821
 Spin= Alpha
 Occup=    2.000000
1 0.0
2 0.0
3 0.0
4 0.0
5 0.0
6 0.0
7 0.99986373229003
8 0.0
9 0.0
10 -0.000898356686256
11 0.0
12 0.0
13 0.000906327826095
14 0.0
15 0.0
16 -0.000221007634828
17 0.0
18 0.0
19 0.000543876973340
20 0.0
21 0.0
22 0.0
23 0.0
24 0.0
25 0.0
26 0.0
27 0.0
28 0.0
29 0.0
30 0.0
31 0.0
32 0.0
33 0.0
34 0.0
35 0.0
36 0.0
37 0.0
38 0.0
39 0.0
40 0.000000000011085
41 0.0
42 0.0
43 0.000000000000986
44 0.0
45 0.0
46 -0.000000000015858
47 0.0
48 0.0
49 0.0
50 -0.000000000009639
51 0.0
52 0.0
53 0.000000000003802
54 0.0
55 0.0
56 0.000000000009130
57 0.0
58 0.0
59 0.0
 Sym=      3.1
 Ene=      -0.2531
 Spin= Alpha
 Occup=    2.000000
1 0.000090642552636
2 0.000767593236871
3 1.00234585834034
4 -0.000543809985946
5 -0.003956855893790
6 0.002600757507746
7 0.0
8 0.0
9 0.0
10 0.0
11 0.0
12 0.0
13 0.0
14 0.0
15 0.0
16 0.0
17 0.0
18 0.0
19 0.0
20 0.0
21 0.0
22 0.000000000012723
23 0.000000000012723
24 -0.000000000025446
25 0.0
26 0.0
27 0.0
28 0.000000000036721
29 0.000000000036721
30 -0.000000000073442
31 0.0
32 0.0
33 0.0
34 -0.000000000026803
35 -0.000000000026803
36 0.000000000053606
37 0.0
38 0.0
39 0.0
40 0.0
41 0.0
42 0.0
43 0.0
44 0.0
45 0.0
46 0.0
47 0.0
48 0.0
49 0.0
50 0.0
51 0.0
52 0.0
53 0.0
54 0.0
55 0.0
56 0.0
57 0.0
58 0.0
59 0.0
 Sym=      2.5
 Ene=       0.0160
 Spin= Alpha
 Occup=    0.000000
1 0.0
2 0.0
3 0.0
4 0.0
5 0.0
6 0.0
7 0.0
8 0.0
9 -0.024301813845870
10 0.0
11 0.0
12 0.10722598263600
13 0.0
14 0.0
15 0.099451379070342
16 0.0
17 0.0
18 -0.058316182726106
19 0.0
20 0.0
21 0.95485286362026
22 0.0
23 0.0
24 0.0
25 0.0
26 0.0
27 0.0
28 0.0
29 0.0
30 0.0
31 0.0
32 0.0
33 0.0
34 0.0
35 0.0
36 0.0
37 0.0
38 0.0
39 0.0
40 0.0
41 0.0
42 0.000000000046537
43 0.0
44 0.0
45 -0.000000000031218
46 0.0
47 0.0
48 -0.000000000031218
49 0.0
50 0.0
51 0.0
52 -0.000000000126582
53 0.0
54 0.0
55 0.000000000084914
56 0.0
57 0.0
58 0.000000000084914
59 0.0
 Sym=      2.3
 Ene=       0.0160
 Spin= Alpha
 Occup=    0.000000
1 0.0
2 0.0
3 0.0
4 0.0
5 0.0
6 0.0
7 0.0
8 -0.024301813845976
9 0.0
10 0.0
11 0.10722598263141
12 0.0
13 0.0
14 0.099451379078155
15 0.0
16 0.0
17 -0.058316182752233
18 0.0
19 0.0
20 0.95485286363805
21 0.0
22 0.0
23 0.0
24 0.0
25 0.0
26 0.0
27 0.0
28 0.0
29 0.0
30 0.0
31 0.0
32 0.0
33 0.0
34 0.0
35 0.0
36 0.0
37 0.0
38 0.0
39 0.0
40 0.0
41 -0.000000000036697
42 0.0
43 0.0
44 -0.000000000016069
45 0.0
46 0.0
47 0.000000000065303
48 0.0
49 0.0
50 0.0
51 0.000000000111891
52 0.0
53 0.0
54 0.000000000048832
55 0.0
56 0.0
57 -0.000000000198949
58 0.0
59 0.0
 Sym=      2.2
 Ene=       0.0160
 Spin= Alpha
 Occup=    0.000000
1 0.0
2 0.0
3 0.0
4 0.0
5 0.0
6 0.0
7 -0.024301813845974
8 0.0
9 0.0
10 0.10722598263143
11 0.0
12 0.0
13 0.099451379078140
14 0.0
15 0.0
16 -0.058316182752234
17 0.0
18 0.0
19 0.95485286363804
20 0.0
21 0.0
22 0.0
23 0.0
24 0.0
25 0.0
26 0.0
27 0.0
28 0.0
29 0.0
30 0.0
31 0.0
32 0.0
33 0.0
34 0.0
35 0.0
36 0.0
37 0.0
38 0.0
39 0.0
40 -0.000000000036697
41 0.0
42 0.0
43 -0.000000000016069
44 0.0
45 0.0
46 0.000000000065303
47 0.0
48 0.0
49 0.0
50 0.000000000111891
51 0.0
52 0.0
53 0.000000000048832
54 0.0
55 0.0
56 -0.000000000198949
57 0.0
58 0.0
59 0.0
 Sym=      4.1
 Ene=       0.0286
 Spin= Alpha
 Occup=    0.000000
1 0.013467980887942
2 0.11219691117875
3 0.10502833491540
4 -0.047451054142719
5 -1.33811618759364
6 1.77930713424711
7 0.0
8 0.0
9 0.0
10 0.0
11 0.0
12 0.0
13 0.0
14 0.0
15 0.0
16 0.0
17 0.0
18 0.0
19 0.0
20 0.0
21 0.0
22 0.000000000361348
23 0.000000000361348
24 -0.000000000722696
25 0.0
26 0.0
27 0.0
28 -0.000000000686418
29 -0.000000000686418
30 0.000000001372835
31 0.0
32 0.0
33 0.0
34 0.000000000489090
35 0.000000000489090
36 -0.000000000978181
37 0.0
38 0.0
39 0.0
40 0.0
41 0.0
42 0.0
43 0.0
44 0.0
45 0.0
46 0.0
47 0.0
48 0.0
49 0.0
50 0.0
51 0.0
52 0.0
53 0.0
54 0.0
55 0.0
56 0.0
57 0.0
58 0.0
59 0.0
 Sym=      3.5
 Ene=       0.0547
 Spin= Alpha
 Occup=    0.000000
1 0.0
2 0.0
3 0.0
4 0.0
5 0.0
6 0.0
7 0.0
8 0.0
9 0.032386776370417
10 0.0
11 0.0
12 0.79198665612531
13 0.0
14 0.0
15 -0.45360157914282
16 0.0
17 0.0
18 0.88815143241407
19 0.0
20 0.0
21 -0.87468472784489
22 0.0
23 0.0
24 0.0
25 0.0
26 0.0
27 0.0
28 0.0
29 0.0
30 0.0
31 0.0
32 0.0
33 0.0
34 0.0
35 0.0
36 0.0
37 0.0
38 0.0
39 0.0
40 0.0
41 0.0
42 -0.000000000091937
43 0.0
44 0.0
45 0.000000000061673
46 0.0
47 0.0
48 0.000000000061673
49 0.0
50 0.0
51 0.0
52 0.000000000055955
53 0.0
54 0.0
55 -0.000000000037536
56 0.0
57 0.0
58 -0.000000000037536
59 0.0
 Sym=      3.3
 Ene=       0.0547
 Spin= Alpha
 Occup=    0.000000
1 0.0
2 0.0
3 0.0
4 0.0
5 0.0
6 0.0
7 0.0
8 0.032386776370888
9 0.0
10 0.0
11 0.79198665614658
12 0.0
13 0.0
14 -0.45360157914153
15 0.0
16 0.0
17 0.88815143239285
18 0.0
19 0.0
20 -0.87468472782366
21 0.0
22 0.0
23 0.0
24 0.0
25 0.0
26 0.0
27 0.0
28 0.0
29 0.0
30 0.0
31 0.0
32 0.0
33 0.0
34 0.0
35 0.0
36 0.0
37 0.0
38 0.0
39 0.0
40 0.0
41 0.000000000032707
42 0.0
43 0.0
44 0.000000000014140
45 0.0
46 0.0
47 -0.000000000058021
48 0.0
49 0.0
50 0.0
51 -0.000000000015912
52 0.0
53 0.0
54 -0.000000000005252
55 0.0
56 0.0
57 0.000000000026600
58 0.0
59 0.0
 Sym=      3.2
 Ene=       0.0547
 Spin= Alpha
 Occup=    0.000000
1 0.0
2 0.0
3 0.0
4 0.0
5 0.0
6 0.0
7 0.032386776370887
8 0.0
9 0.0
10 0.79198665614658
11 0.0
12 0.0
13 -0.45360157914152
14 0.0
15 0.0
16 0.88815143239285
17 0.0
18 0.0
19 -0.87468472782366
20 0.0
21 0.0
22 0.0
23 0.0
24 0.0
25 0.0
26 0.0
27 0.0
28 0.0
29 0.0
30 0.0
31 0.0
32 0.0
33 0.0
34 0.0
35 0.0
36 0.0
37 0.0
38 0.0
39 0.0
40 0.000000000032707
41 0.0
42 0.0
43 0.000000000014140
44 0.0
45 0.0
46 -0.000000000058021
47 0.0
48 0.0
49 0.0
50 -0.000000000015912
51 0.0
52 0.0
53 -0.000000000005252
54 0.0
55 0.0
56 0.000000000026600
57 0.0
58 0.0
59 0.0
 Sym=      5.1
 Ene=       0.1312
 Spin= Alpha
 Occup=    0.000000
1 0.000000000250665
2 0.000000002079706
3 0.000000006556470
4 -0.000000001975800
5 -0.000000007191363
6 0.000000002366116
7 0.0
8 0.0
9 0.0
10 0.0
11 0.0
12 0.0
13 0.0
14 0.0
15 0.0
16 0.0
17 0.0
18 0.0
19 0.0
20 0.0
21 0.0
22 -0.047093751299952
23 -0.047093531200467
24 0.094187282500419
25 0.0
26 0.0
27 0.0
28 0.10395949367925
29 0.10395900780946
30 -0.20791850148871
31 0.0
32 0.0
33 0.0
34 -0.55021387198967
35 -0.55021130048523
36 1.10042517247491
37 0.0
38 0.0
39 0.0
40 0.0
41 0.0
42 0.0
43 0.0
44 0.0
45 0.0
46 0.0
47 0.0
48 0.0
49 0.0
50 0.0
51 0.0
52 0.0
53 0.0
54 0.0
55 0.0
56 0.0
57 0.0
58 0.0
59 0.0
 Sym=      1.6
 Ene=       0.1312
 Spin= Alpha
 Occup=    0.000000
1 0.0
2 0.0
3 0.0
4 0.0
5 0.0
6 0.0
7 0.0
8 0.0
9 0.0
10 0.0
11 0.0
12 0.0
13 0.0
14 0.0
15 0.0
16 0.0
17 0.0
18 0.0
19 0.0
20 0.0
21 0.0
22 0.0
23 0.0
24 0.0
25 0.0
26 0.094187282292272
27 0.0
28 0.0
29 0.0
30 0.0
31 0.0
32 -0.20791850096369
33 0.0
34 0.0
35 0.0
36 0.0
37 0.0
38 1.10042517223107
39 0.0
40 0.0
41 0.0
42 0.0
43 0.0
44 0.0
45 0.0
46 0.0
47 0.0
48 0.0
49 0.0
50 0.0
51 0.0
52 0.0
53 0.0
54 0.0
55 0.0
56 0.0
57 0.0
58 0.0
59 0.0
 Sym=      1.7
 Ene=       0.1312
 Spin= Alpha
 Occup=    0.000000
1 0.0
2 0.0
3 0.0
4 0.0
5 0.0
6 0.0
7 0.0
8 0.0
9 0.0
10 0.0
11 0.0
12 0.0
13 0.0
14 0.0
15 0.0
16 0.0
17 0.0
18 0.0
19 0.0
20 0.0
21 0.0
22 0.0
23 0.0
24 0.0
25 0.0
26 0.0
27 0.094187282292272
28 0.0
29 0.0
30 0.0
31 0.0
32 0.0
33 -0.20791850096369
34 0.0
35 0.0
36 0.0
37 0.0
38 0.0
39 1.10042517223107
40 0.0
41 0.0
42 0.0
43 0.0
44 0.0
45 0.0
46 0.0
47 0.0
48 0.0
49 0.0
50 0.0
51 0.0
52 0.0
53 0.0
54 0.0
55 0.0
56 0.0
57 0.0
58 0.0
59 0.0
 Sym=      1.4
 Ene=       0.1312
 Spin= Alpha
 Occup=    0.000000
1 0.0
2 0.0
3 0.0
4 0.0
5 0.0
6 0.0
7 0.0
8 0.0
9 0.0
10 0.0
11 0.0
12 0.0
13 0.0
14 0.0
15 0.0
16 0.0
17 0.0
18 0.0
19 0.0
20 0.0
21 0.0
22 0.0
23 0.0
24 0.0
25 0.094187282293514
26 0.0
27 0.0
28 0.0
29 0.0
30 0.0
31 -0.20791850096864
32 0.0
33 0.0
34 0.0
35 0.0
36 0.0
37 1.10042517223353
38 0.0
39 0.0
40 0.0
41 0.0
42 0.0
43 0.0
44 0.0
45 0.0
46 0.0
47 0.0
48 0.0
49 0.0
50 0.0
51 0.0
52 0.0
53 0.0
54 0.0
55 0.0
56 0.0
57 0.0
58 0.0
59 0.0
 Sym=      6.1
 Ene=       0.1312
 Spin= Alpha
 Occup=    0.000000
1 0.000000000000000
2 0.000000000000003
3 0.000000000000009
4 -0.000000000000002
5 -0.000000000000010
6 0.000000000000003
7 0.0
8 0.0
9 0.0
10 0.0
11 0.0
12 0.0
13 0.0
14 0.0
15 0.0
16 0.0
17 0.0
18 0.0
19 0.0
20 0.0
21 0.0
22 0.081568515641949
23 -0.081568642716447
24 0.000000127074498
25 0.0
26 0.0
27 0.0
28 -0.18006256349614
29 0.18006284401320
30 -0.000000280517056
31 0.0
32 0.0
33 0.0
34 0.95299541178748
35 -0.95299689644626
36 0.000001484658781
37 0.0
38 0.0
39 0.0
40 0.0
41 0.0
42 0.0
43 0.0
44 0.0
45 0.0
46 0.0
47 0.0
48 0.0
49 0.0
50 0.0
51 0.0
52 0.0
53 0.0
54 0.0
55 0.0
56 0.0
57 0.0
58 0.0
59 0.0
 Sym=      7.1
 Ene=       0.2042
 Spin= Alpha
 Occup=    0.000000
1 -0.083339079798766
2 -0.73741730838250
3 -3.18950752141411
4 0.078483103667957
5 4.40085922576993
6 -1.34749404515770
7 0.0
8 0.0
9 0.0
10 0.0
11 0.0
12 0.0
13 0.0
14 0.0
15 0.0
16 0.0
17 0.0
18 0.0
19 0.0
20 0.0
21 0.0
22 -0.000000000766332
23 -0.000000000766332
24 0.000000001532664
25 0.0
26 0.0
27 0.0
28 0.000000001662476
29 0.000000001662476
30 -0.000000003324952
31 0.0
32 0.0
33 0.0
34 -0.000000001269900
35 -0.000000001269900
36 0.000000002539800
37 0.0
38 0.0
39 0.0
40 0.0
41 0.0
42 0.0
43 0.0
44 0.0
45 0.0
46 0.0
47 0.0
48 0.0
49 0.0
50 0.0
51 0.0
52 0.0
53 0.0
54 0.0
55 0.0
56 0.0
57 0.0
58 0.0
59 0.0
 Sym=      4.5
 Ene=       0.2077
 Spin= Alpha
 Occup=    0.000000
1 0.0
2 0.0
3 0.0
4 0.0
5 0.0
6 0.0
7 0.0
8 0.0
9 -0.26750118210225
10 0.0
11 0.0
12 -0.69639298713904
13 0.0
14 0.0
15 2.15418502935755
16 0.0
17 0.0
18 -1.44254811778803
19 0.0
20 0.0
21 0.52195945512793
22 0.0
23 0.0
24 0.0
25 0.0
26 0.0
27 0.0
28 0.0
29 0.0
30 0.0
31 0.0
32 0.0
33 0.0
34 0.0
35 0.0
36 0.0
37 0.0
38 0.0
39 0.0
40 0.0
41 0.0
42 0.000000000205798
43 0.0
44 0.0
45 -0.000000000138053
46 0.0
47 0.0
48 -0.000000000138053
49 0.0
50 0.0
51 0.0
52 -0.000000000401295
53 0.0
54 0.0
55 0.000000000269197
56 0.0
57 0.0
58 0.000000000269196
59 0.0
 Sym=      4.3
 Ene=       0.2077
 Spin= Alpha
 Occup=    0.000000
1 0.0
2 0.0
3 0.0
4 0.0
5 0.0
6 0.0
7 0.0
8 -0.26750118210132
9 0.0
10 0.0
11 -0.69639298713654
12 0.0
13 0.0
14 2.15418502935374
15 0.0
16 0.0
17 -1.44254811779838
18 0.0
19 0.0
20 0.52195945513116
21 0.0
22 0.0
23 0.0
24 0.0
25 0.0
26 0.0
27 0.0
28 0.0
29 0.0
30 0.0
31 0.0
32 0.0
33 0.0
34 0.0
35 0.0
36 0.0
37 0.0
38 0.0
39 0.0
40 0.0
41 0.000000000024063
42 0.0
43 0.0
44 0.000000000017528
45 0.0
46 0.0
47 -0.000000000049812
48 0.0
49 0.0
50 0.0
51 -0.000000000278297
52 0.0
53 0.0
54 -0.000000000155718
55 0.0
56 0.0
57 0.000000000529092
58 0.0
59 0.0
 Sym=      4.2
 Ene=       0.2077
 Spin= Alpha
 Occup=    0.000000
1 0.0
2 0.0
3 0.0
4 0.0
5 0.0
6 0.0
7 -0.26750118210132
8 0.0
9 0.0
10 -0.69639298713655
11 0.0
12 0.0
13 2.15418502935376
14 0.0
15 0.0
16 -1.44254811779838
17 0.0
18 0.0
19 0.52195945513116
20 0.0
21 0.0
22 0.0
23 0.0
24 0.0
25 0.0
26 0.0
27 0.0
28 0.0
29 0.0
30 0.0
31 0.0
32 0.0
33 0.0
34 0.0
35 0.0
36 0.0
37 0.0
38 0.0
39 0.0
40 0.000000000024063
41 0.0
42 0.0
43 0.000000000017528
44 0.0
45 0.0
46 -0.000000000049812
47 0.0
48 0.0
49 0.0
50 -0.000000000278296
51 0.0
52 0.0
53 -0.000000000155718
54 0.0
55 0.0
56 0.000000000529092
57 0.0
58 0.0
59 0.0
 Sym=      1.8
 Ene=       0.3522
 Spin= Alpha
 Occup=    0.000000
1 0.0
2 0.0
3 0.0
4 0.0
5 0.0
6 0.0
7 0.0
8 0.0
9 0.0
10 0.0
11 0.0
12 0.0
13 0.0
14 0.0
15 0.0
16 0.0
17 0.0
18 0.0
19 0.0
20 0.0
21 0.0
22 0.0
23 0.0
24 0.0
25 0.0
26 0.0
27 0.0
28 0.0
29 0.0
30 0.0
31 0.0
32 0.0
33 0.0
34 0.0
35 0.0
36 0.0
37 0.0
38 0.0
39 0.0
40 0.0
41 0.0
42 0.0
43 0.0
44 0.0
45 0.0
46 0.0
47 0.0
48 0.0
49 -0.13877385310201
50 0.0
51 0.0
52 0.0
53 0.0
54 0.0
55 0.0
56 0.0
57 0.0
58 0.0
59 1.07195153677414
 Sym=      5.5
 Ene=       0.3522
 Spin= Alpha
 Occup=    0.000000
1 0.0
2 0.0
3 0.0
4 0.0
5 0.0
6 0.0
7 0.0
8 0.0
9 -0.000000000000012
10 0.0
11 0.0
12 -0.000000000000093
13 0.0
14 0.0
15 0.000000000000064
16 0.0
17 0.0
18 0.000000000000035
19 0.0
20 0.0
21 -0.000000000000001
22 0.0
23 0.0
24 0.0
25 0.0
26 0.0
27 0.0
28 0.0
29 0.0
30 0.0
31 0.0
32 0.0
33 0.0
34 0.0
35 0.0
36 0.0
37 0.0
38 0.0
39 0.0
40 0.0
41 0.0
42 0.000001343018460
43 0.0
44 0.0
45 -0.12018258308595
46 0.0
47 0.0
48 0.12018078123761
49 0.0
50 0.0
51 0.0
52 -0.000010374077463
53 0.0
54 0.0
55 0.92834422157143
56 0.0
57 0.0
58 -0.92833030328599
59 0.0
 Sym=      6.5
 Ene=       0.3522
 Spin= Alpha
 Occup=    0.000000
1 0.0
2 0.0
3 0.0
4 0.0
5 0.0
6 0.0
7 0.0
8 0.0
9 0.000000001207924
10 0.0
11 0.0
12 0.000000009452461
13 0.0
14 0.0
15 -0.000000006554586
16 0.0
17 0.0
18 -0.000000003454957
19 0.0
20 0.0
21 0.000000000063030
22 0.0
23 0.0
24 0.0
25 0.0
26 0.0
27 0.0
28 0.0
29 0.0
30 0.0
31 0.0
32 0.0
33 0.0
34 0.0
35 0.0
36 0.0
37 0.0
38 0.0
39 0.0
40 0.0
41 0.0
42 -0.13877385315285
43 0.0
44 0.0
45 0.093091167656700
46 0.0
47 0.0
48 0.093093493832908
49 0.0
50 0.0
51 0.0