[Molden Format]
[Molpro variables]
_NUMVAR=  785.0000000000000    
_AVOGAD= 0.6022136736000000E+24
_BOLTZ= 0.1380658000000000E-22
_CLIGHT=  29979245800.00000    
_EV2006= 0.3674930886769165E-01
_EV= 0.3674932534394180E-01
_ENULL= 0.8854187817000000E-11
_KJOULE= 0.3808798324128737E-03
_KJOULE/MOL= 0.3808798324128737E-03
_CM= 0.4556335267302901E-05
_CM-1= 0.4556335267302901E-05
_DEB2SI= 0.3335641000000000E-29
_AMU2AU=  1822.888390000000    
_KCAL= 0.1593601117815568E-02
_KCAL/MOL= 0.1593601117815568E-02
_KELVIN2006= 0.3166828861084835E-05
_KELVIN= 0.3166814820820034E-05
_JOULE= 0.4359748200000000E-17
_HERTZ2006= 0.1519829850815779E-15
_HERTZ= 0.1519829846011223E-15
_HZ2006= 0.1519829850815779E-15
_HZ= 0.1519829846011223E-15
_JPCAL=  4.184000000000000    
_PLANCK= 0.6626075540000000E-33
_TOA2006= 0.5291772490000000    
_TOA= 0.5291772090000000    
_TOANG2006= 0.5291772490000000    
_TOANG= 0.5291772090000000    
_TORAD= 0.1745329251994330E-01
_TOCM=  219474.6306700000    
_TODEBYE=  2.541580000000000    
_TOEV2006=  27.21139610000000    
_TOE= 0.4803242000000000E-09
_TOEV=  27.21138390000000    
_TOHERTZ2006=  6579683899900000.    
_TOHERTZ=  6579683920700000.    
_TOHZ2006=  6579683899900000.    
_TOHZ=  6579683920700000.    
_TOK2006=  315773.3000000000    
_TOK=  315774.7000000000    
_TOKCAL=  627.5096000000000    
_TOKELVIN2006=  315773.3000000000    
_TOKELVIN=  315774.7000000000    
_TOKJ=  2625.500000000000    
_TOKJOULE=  2625.500000000000    
_TOKG= 0.1660565586000000E-26
_ANG2006=  1.889725988578923    
_ANG=  1.889726131421507    
_ANGSTROM2006=  1.889725988578923    
_ANGSTROM=  1.889726131421507    
_RPAREF=  0.000000000000000    
_RPADISS=  0.000000000000000    
_IGNORE_UNDEF=  2.000000000000000    
_STRICTCHECK=  0.000000000000000    
_SEW_ONEEL=  0.000000000000000    
_CPPDONE=FALSE
_DKROLL_DONE=  0.000000000000000    
_FOCKDONE=  0.000000000000000    
_GRADONE=FALSE
_HESSDONE=FALSE
_INTDONE=TRUE
_SCFDONE=TRUE
_MODUL_BLOCK=FALSE
_MODUL_CUDA=FALSE
_MODUL_SLATER=FALSE
_MODUL_MRCC=FALSE
_MODUL_NBO6=FALSE
_MODUL_NECI=TRUE
_MODUL_AIMS=TRUE
_MRCC_EXEC=
_FITC_AO_SAVED=FALSE
_FITC_MO_SAVED=FALSE
_SHARED_FS=TRUE
_LSTYP=SEWARD
_INTYP=INTS
_GEOMTYP=ZMAT
_GRADTYP=ALASKA
_DIRECT=FALSE
_DKHO= -1.000000000000000    
_SYNCM=  0.000000000000000    
_BASIS=AUG-CC-PVTZ
_ZORIENT=  1.000000000000000    
_NELEC=  14.00000000000000    
!SPIN=  0.000000000000000    
_QSDSTEP=  0.000000000000000    
_QSDIRC=  0.000000000000000    
_PROGRAM=CI
_CPUSTEP=  10.65000000000000    
_SYSSTEP= 0.7899999999999999    
_WALLSTEP=  22.28000000000000    
!DFMP2=  0.000000000000000    
!DFSCF=  0.000000000000000    
!SCSGRD=  0.000000000000000    
_BASINP=  610.0000000000000    
_CPUTOT=  12.05000000000000    
_DFTEXFAC=  1.000000000000000    
_DMX= 0.5906173212594595E-19
_DMY= 0.5906176550345855E-19
_DMZ=  0.000000000000000    
_DMX_SCF= 0.3146145235480212E-15
_DMY_SCF= 0.3532980366849196E-14
_DMZ_SCF=  0.000000000000000    
_EHOMO=-0.6159719076794766    
_ELUMO= 0.8277698653189521E-01
_ENERGD= -109.3804381048900    
_ENERGD0= -109.3804381048900    
_ENERGD1= -109.3805083865686    
_ENERGD2= -109.3805083865686    
_ENERGP= -109.3781223002302    
_ENERGP0= -109.3781223002302    
_ENERGP1= -109.3781825272802    
_ENERGP2= -109.3781825272802    
_ENERGR= -109.1328174289233    
_ENERGY= -109.3669630474333    
_ENUC=  23.69439071566731    
_GRADEXFAC=  9999.000000000000    
_GRADMETHOD=FALSE
_NMRMETHOD=  0.000000000000000    
!GRID_FREEZE= -1.000000000000000    
_ITERATIONS=  8.000000000000000    
_LASTNELEC=  10.00000000000000    
_LASTSPIN=  0.000000000000000    
_LASTSYM=  1.000000000000000    
_MPP_PROG=  1.000000000000000    
_NPROC_MPP=  24.00000000000000    
_NPROC_MPPX=  24.00000000000000    
_NPROC_SMP=  1.000000000000000    
_NUMSTEP=  0.000000000000000    
_ORBITAL=  2140.200000000000    
_PI=  3.141592653589793    
!MCACT=  4.000000000000000    
!MCCLOSED=  1.000000000000000    
!MCFREEZE=  0.000000000000000    
!MCMS2=  0.000000000000000    
!MCNEL=  10.00000000000000    
!MCNSTSYM=  1.000000000000000    
!MCSTATE=  1.000000000000000    
!MCSYM=  1.000000000000000    
!MCWEIGHT=  1.000000000000000    
_SEIG_MIN= 0.6919238681382598E-04
_SEWPROP=TRUE
_STATUS=  1.000000000000000    
_SYSTOT=  1.370000000000000    
_VERSION=  2012001.000000000    
_WALLTOT=  25.67000000000000    
_DATE=29-Apr-19
_LASTORB=MCSCF
_MACHINE=Linux-4.4.103-6.38_4.0.153-cray_ari_c/nid00094(x86_64) 64 bit mpp version
_OUTPUT=/scratch1/scratchdirs/rbello/Quantum_Chem/molpro.xml
_PGROUP=Cs
_TIME=14:26:23
_LIBMOL=/global/u2/s/swowner/zz217/molpro/2012.1/molprop_2012_1_Linux_x86_64_i8/lib/
!VIBCNT=  0.000000000000000    
!RGHFCNT=  0.000000000000000    
!SURFREC=  0.000000000000000    
!POLYREC=  0.000000000000000    
!DIPREC=  0.000000000000000    
!VSCFREC=  0.000000000000000    
!VCIREC=  0.000000000000000    
!PVCIREC=  0.000000000000000    
!VMP2REC=  0.000000000000000    
!VMCSCFREC=  0.000000000000000    
!VMRCIREC=  0.000000000000000    
!VIBINFO=  0.000000000000000    
!GAREC=  0.000000000000000    
!SCFORB=  21002.00000000000    
!MCORB=  21402.00000000000    
!CIOCC=  5.000000000000000    
!CICORE=  1.000000000000000    
!CICLOS=  1.000000000000000    
!CIISTSYM=  1.000000000000000    
!CIISTMS2=  0.000000000000000    
!CIISTNEL=  10.00000000000000    
!NEWMOL= -1.000000000000000    
!NEWSYM= -1.000000000000000    
_SLFILES=slscratch
_NGSSTO=  9.000000000000000    
_SIN=SIN
_COS=COS
_TAN=TAN
_ACOS=ACOS
_ASIN=ASIN
_ATAN=ATAN
_COSH=COSH
_SINH=SINH
_TANH=TANH
_ABS=ABS
_MOD=MOD
_ERF=ERF
_REFC=REFC
_ERFC=ERFC
_HYPOT=HYPOT
_J0=J0
_J1=J1
_JN=JN
_GAMMA=GAMMA
_LGAMMA=LGAMMA
_Y0=Y0
_Y1=Y1
_YN=YN
_EXP=EXP
_LOG=LOG
_LOG10=LOG10
_SQRT=SQRT
_INT=INT
_NINT=NINT
_MAX=MAX
_MIN=MIN
_COSMO=  0.000000000000000    
_COSMOIT=  0.000000000000000    
_COSMOES=  0.000000000000000    
_COSMOEDS=  0.000000000000000    
_COSMOEC=  0.000000000000000    
_COSMOEDCORR=  0.000000000000000    
_FEPSI=  1.000000000000000    
_SL_IsMM=  0.000000000000000    
_SL_NSYM=  2.000000000000000    
_SL_System_BitSw=  0.000000000000000    
_SL_Unique_atoms=  0.000000000000000    
_SL_GRAD=  0.000000000000000    
_SL_MAXUPD_Hess=  5.000000000000000    
_SL_N_PRINT_COD=  5.000000000000000    
_SL_PRINT_CODES=  0.000000000000000    
_SL_BasType=  0.000000000000000    
_SL_Energy_Pred=  0.000000000000000    
_SL_New_Coords=  0.000000000000000    
_SL_Total_Nuclea=  0.000000000000000    
_SL_Highest_Mltp=  0.000000000000000    
_SL_Ref_Geom=  0.000000000000000    
_SL_Symmetry_ope=  1.000000000000000    
_SL_agrad=  0.000000000000000    
_SL_GrdMax=  0.000000000000000    
_SL_GrdNorm=  0.000000000000000    
_SL_GrdRMS=  0.000000000000000    
_SL_Hss_Q=  0.000000000000000    
_SL_Hss_X=  0.000000000000000    
_SL_BMxOld=  0.000000000000000    
_SL_KtB=  0.000000000000000    
!LATTICE= -1.000000000000000    
!NEWLATTICE=  0.000000000000000    
!LATGRAD_VAR=FALSE
!SEW_LATTICE=  1.000000000000000    
!LOCAL=  0.000000000000000    
!SAVEDOM= -1.000000000000000    
!RESTDOM= -1.000000000000000    
!SAVEDOM_HF= -1.000000000000000    
!RESTDOM_HF= -1.000000000000000    
!HESSREC=  0.000000000000000    
!FREQREC=  0.000000000000000    
!NMODREC=  0.000000000000000    
!GTASKS=  0.000000000000000    
!HTASKS=  0.000000000000000    
!THRCHG= 0.1000000000000000    
!DEBUG= -1.000000000000000    
!CFIT_CPHF=  0.000000000000000    
!RDOMAUX_CPHF=  3.000000000000000    
!THRAO_CPHF= 0.1000000000000000E-09
!THRMO_CPHF= 0.1000000000000000E-08
!THROV_CPHF= 0.1000000000000000E-11
!THRSW_CPHF= 0.1000000000000000E-09
!THRPROD_CPHF= 0.1000000000000000E-08
!THRAOPR_CPHF= 0.1000000000000000E-11
!CFIT_SCFGRD=  0.000000000000000    
!RDOMAUX_SCFGRD=  5.000000000000000    
!THRAO_SCFGRD= 0.1000000000000000E-09
!THRMO_SCFGRD= 0.1000000000000000E-08
!THROV_SCFGRD= 0.1000000000000000E-11
!THRSW_SCFGRD= 0.1000000000000000E-09
!THRPROD_SCFGRD= 0.1000000000000000E-08
!THRAOPR_SCFGRD= 0.1000000000000000E-11
!LOCFIT_SCF=  0.000000000000000    
!LOCFIT_MP2= -1.000000000000000    
_RIDOM=  0.000000000000000    
!CC2_METHOD=  0.000000000000000    
_BASIS2006=FALSE
_SVDDEL= -1.000000000000000    
_SVDDELA= -1.000000000000000    
_SVDDELP= -1.000000000000000    
_SVDDELF= -1.000000000000000    
_SVDDELS= -1.000000000000000    
_SVDDEL_ABS= -1.000000000000000    
_SVDDELA_ABS= -1.000000000000000    
_SVDDELP_ABS= -1.000000000000000    
_SVDDELF_ABS= -1.000000000000000    
_SVDDELS_ABS= -1.000000000000000    
_MAXBASIS=  0.000000000000000    
!OPT_CONICAL=  0.000000000000000    
!CLEARSP_JGRID=  0.000000000000000    
_4EXT_NDISKS=  1.000000000000000    
_C0= 0.9455818565872860    
_C0R= 0.9453135501431428    
!ZMP=  0.000000000000000    
_MAXIT_ZMP=  500.0000000000000    
_MAXDIS_ZMP=  100.0000000000000    
_ACCU_ZMP=  14.00000000000000    
_SHIFTA_ZMP= -100.0000000000000    
!EMBEDFLAG=  1.000000000000000    
!EMBED=FALSE
!EMBED_F12=FALSE
!EMBEDNUC=  0.000000000000000    
_EMBEDENERGY=  0.000000000000000    
_KSPACETIME=  0.000000000000000    
_RSPACETIME=  0.000000000000000    
!EMBED_DFC=FALSE
!NUM_VOIDS=  0.000000000000000    
_IBODY=  0.000000000000000    
_EMBE_TOTAL=  0.000000000000000    
_EMBE_HF=  0.000000000000000    
_EMBE_CORR=  0.000000000000000    
!EDFT=  0.000000000000000    
_IFASTLATGRAD=  0.000000000000000    
_SINDEX=  0.000000000000000    
R=  2.068000000000000    
VDZ=  0.000000000000000    
GX1=  0.000000000000000    
GY1=  0.000000000000000    
GZ1= -1.034000000000000    
GX2=  0.000000000000000    
GY2=  0.000000000000000    
GZ2=  1.034000000000000    
E= -109.3669630474333    
[Atoms] Angs
N     1    7         0.0000000000        0.0000000000       -0.5471692341
N     2    7         0.0000000000        0.0000000000        0.5471692341
[GTO]
  1 0
 s   10  1.00
  0.1142000000D+05  0.5229996559D-03
  0.1712000000D+04  0.4044997339D-02
  0.3893000000D+03  0.2077498633D-01
  0.1100000000D+03  0.8072694689D-01
  0.3557000000D+02  0.2330738467D+00
  0.1254000000D+02  0.4335007148D+00
  0.4644000000D+01  0.3474717714D+00
  0.1293000000D+01  0.4126197285D-01
  0.5118000000D+00 -0.8507994403D-02
  0.1787000000D+00  0.2383998432D-02
 s   10  1.00
  0.1142000000D+05 -0.1149999544D-03
  0.1712000000D+04 -0.8949996452D-03
  0.3893000000D+03 -0.4623998167D-02
  0.1100000000D+03 -0.1852799265D-01
  0.3557000000D+02 -0.5733897727D-01
  0.1254000000D+02 -0.1320759476D+00
  0.4644000000D+01 -0.1725099316D+00
  0.1293000000D+01  0.1518139398D+00
  0.5118000000D+00  0.5999437621D+00
  0.1787000000D+00  0.3874618464D+00
 s   10  1.00
  0.1142000000D+05  0.0000000000D+00
  0.1712000000D+04  0.0000000000D+00
  0.3893000000D+03  0.0000000000D+00
  0.1100000000D+03  0.0000000000D+00
  0.3557000000D+02  0.0000000000D+00
  0.1254000000D+02  0.0000000000D+00
  0.4644000000D+01  0.0000000000D+00
  0.1293000000D+01  0.1000000000D+01
  0.5118000000D+00  0.0000000000D+00
  0.1787000000D+00  0.0000000000D+00
 s   10  1.00
  0.1142000000D+05  0.0000000000D+00
  0.1712000000D+04  0.0000000000D+00
  0.3893000000D+03  0.0000000000D+00
  0.1100000000D+03  0.0000000000D+00
  0.3557000000D+02  0.0000000000D+00
  0.1254000000D+02  0.0000000000D+00
  0.4644000000D+01  0.0000000000D+00
  0.1293000000D+01  0.0000000000D+00
  0.5118000000D+00  0.0000000000D+00
  0.1787000000D+00  0.1000000000D+01
 s    1  1.00
  0.5760000000D-01  0.1000000000D+01
 p    5  1.00
  0.2663000000D+02  0.1467000345D-01
  0.5948000000D+01  0.9176402155D-01
  0.1742000000D+01  0.2986830701D+00
  0.5550000000D+00  0.4984871171D+00
  0.1725000000D+00  0.3370230791D+00
 p    5  1.00
  0.2663000000D+02  0.0000000000D+00
  0.5948000000D+01  0.0000000000D+00
  0.1742000000D+01  0.0000000000D+00
  0.5550000000D+00  0.1000000000D+01
  0.1725000000D+00  0.0000000000D+00
 p    5  1.00
  0.2663000000D+02  0.0000000000D+00
  0.5948000000D+01  0.0000000000D+00
  0.1742000000D+01  0.0000000000D+00
  0.5550000000D+00  0.0000000000D+00
  0.1725000000D+00  0.1000000000D+01
 p    1  1.00
  0.4910000000D-01  0.1000000000D+01
 d    1  1.00
  0.1654000000D+01  0.1000000000D+01
 d    1  1.00
  0.4690000000D+00  0.1000000000D+01
 d    1  1.00
  0.1510000000D+00  0.1000000000D+01
 f    1  1.00
  0.1093000000D+01  0.1000000000D+01
 f    1  1.00
  0.3640000000D+00  0.1000000000D+01
  
  2 0
 s   10  1.00
  0.1142000000D+05  0.5229996559D-03
  0.1712000000D+04  0.4044997339D-02
  0.3893000000D+03  0.2077498633D-01
  0.1100000000D+03  0.8072694689D-01
  0.3557000000D+02  0.2330738467D+00
  0.1254000000D+02  0.4335007148D+00
  0.4644000000D+01  0.3474717714D+00
  0.1293000000D+01  0.4126197285D-01
  0.5118000000D+00 -0.8507994403D-02
  0.1787000000D+00  0.2383998432D-02
 s   10  1.00
  0.1142000000D+05 -0.1149999544D-03
  0.1712000000D+04 -0.8949996452D-03
  0.3893000000D+03 -0.4623998167D-02
  0.1100000000D+03 -0.1852799265D-01
  0.3557000000D+02 -0.5733897727D-01
  0.1254000000D+02 -0.1320759476D+00
  0.4644000000D+01 -0.1725099316D+00
  0.1293000000D+01  0.1518139398D+00
  0.5118000000D+00  0.5999437621D+00
  0.1787000000D+00  0.3874618464D+00
 s   10  1.00
  0.1142000000D+05  0.0000000000D+00
  0.1712000000D+04  0.0000000000D+00
  0.3893000000D+03  0.0000000000D+00
  0.1100000000D+03  0.0000000000D+00
  0.3557000000D+02  0.0000000000D+00
  0.1254000000D+02  0.0000000000D+00
  0.4644000000D+01  0.0000000000D+00
  0.1293000000D+01  0.1000000000D+01
  0.5118000000D+00  0.0000000000D+00
  0.1787000000D+00  0.0000000000D+00
 s   10  1.00
  0.1142000000D+05  0.0000000000D+00
  0.1712000000D+04  0.0000000000D+00
  0.3893000000D+03  0.0000000000D+00
  0.1100000000D+03  0.0000000000D+00
  0.3557000000D+02  0.0000000000D+00
  0.1254000000D+02  0.0000000000D+00
  0.4644000000D+01  0.0000000000D+00
  0.1293000000D+01  0.0000000000D+00
  0.5118000000D+00  0.0000000000D+00
  0.1787000000D+00  0.1000000000D+01
 s    1  1.00
  0.5760000000D-01  0.1000000000D+01
 p    5  1.00
  0.2663000000D+02  0.1467000345D-01
  0.5948000000D+01  0.9176402155D-01
  0.1742000000D+01  0.2986830701D+00
  0.5550000000D+00  0.4984871171D+00
  0.1725000000D+00  0.3370230791D+00
 p    5  1.00
  0.2663000000D+02  0.0000000000D+00
  0.5948000000D+01  0.0000000000D+00
  0.1742000000D+01  0.0000000000D+00
  0.5550000000D+00  0.1000000000D+01
  0.1725000000D+00  0.0000000000D+00
 p    5  1.00
  0.2663000000D+02  0.0000000000D+00
  0.5948000000D+01  0.0000000000D+00
  0.1742000000D+01  0.0000000000D+00
  0.5550000000D+00  0.0000000000D+00
  0.1725000000D+00  0.1000000000D+01
 p    1  1.00
  0.4910000000D-01  0.1000000000D+01
 d    1  1.00
  0.1654000000D+01  0.1000000000D+01
 d    1  1.00
  0.4690000000D+00  0.1000000000D+01
 d    1  1.00
  0.1510000000D+00  0.1000000000D+01
 f    1  1.00
  0.1093000000D+01  0.1000000000D+01
 f    1  1.00
  0.3640000000D+00  0.1000000000D+01
 
 
[MO]
 Sym=      1.2
 Ene=     -15.6283
 Spin= Alpha
 Occup=    2.000000
1 0.70616812656814
2 -0.017421686059441
3 0.000947280086570
4 0.015734984160860
5 0.003235508133593
6 0.0
7 0.0
8 0.010863105168387
9 0.0
10 0.0
11 -0.001014381579410
12 0.0
13 0.0
14 0.005482563740198
15 0.0
16 0.0
17 0.000706947088696
18 -0.000393379688105
19 -0.000393379688105
20 0.000786759376211
21 0.0
22 0.0
23 0.0
24 -0.000508348610433
25 -0.000508348610433
26 0.001016697220867
27 0.0
28 0.0
29 0.0
30 -0.000572066960286
31 -0.000572066960286
32 0.001144133920571
33 0.0
34 0.0
35 0.0
36 0.0
37 0.0
38 0.000494271853371
39 0.0
40 0.0
41 -0.000331567639051
42 0.0
43 0.0
44 -0.000331567639051
45 0.0
46 0.0
47 0.0
48 0.000023884298103
49 0.0
50 0.0
51 -0.000016022074246
52 0.0
53 0.0
54 -0.000016022074246
55 0.0
56 -0.70616812656814
57 0.017421686059441
58 -0.000947280086570
59 -0.015734984160860
60 -0.003235508133593
61 0.0
62 0.0
63 0.010863105168387
64 0.0
65 0.0
66 -0.001014381579410
67 0.0
68 0.0
69 0.005482563740198
70 0.0
71 0.0
72 0.000706947088696
73 0.000393379688105
74 0.000393379688105
75 -0.000786759376211
76 0.0
77 0.0
78 0.0
79 0.000508348610433
80 0.000508348610433
81 -0.001016697220867
82 0.0
83 0.0
84 0.0
85 0.000572066960286
86 0.000572066960286
87 -0.001144133920571
88 0.0
89 0.0
90 0.0
91 0.0
92 0.0
93 0.000494271853371
94 0.0
95 0.0
96 -0.000331567639051
97 0.0
98 0.0
99 -0.000331567639051
100 0.0
101 0.0
102 0.0
103 0.000023884298103
104 0.0
105 0.0
106 -0.000016022074246
107 0.0
108 0.0
109 -0.000016022074246
110 0.0
 Sym=      1.1
 Ene=     -15.6040
 Spin= Alpha
 Occup=    2.000000
1 0.70610201061344
2 -0.027970725197695
3 0.001511620057304
4 -0.002218977841989
5 -0.001230370076999
6 0.0
7 0.0
8 0.022099700480452
9 0.0
10 0.0
11 -0.003461617951639
12 0.0
13 0.0
14 -0.001825255191453
15 0.0
16 0.0
17 0.000416434819034
18 -0.000319125338534
19 -0.000319125338534
20 0.000638250677067
21 0.0
22 0.0
23 0.0
24 0.000303605909049
25 0.000303605909049
26 -0.000607211818098
27 0.0
28 0.0
29 0.0
30 -0.000325515899354
31 -0.000325515899354
32 0.000651031798708
33 0.0
34 0.0
35 0.0
36 0.0
37 0.0
38 -0.000154899963284
39 0.0
40 0.0
41 0.000103910054285
42 0.0
43 0.0
44 0.000103910054285
45 0.0
46 0.0
47 0.0
48 -0.000276554966581
49 0.0
50 0.0
51 0.000185518711437
52 0.0
53 0.0
54 0.000185518711437
55 0.0
56 0.70610201061344
57 -0.027970725197695
58 0.001511620057304
59 -0.002218977841989
60 -0.001230370076999
61 0.0
62 0.0
63 -0.022099700480452
64 0.0
65 0.0
66 0.003461617951639
67 0.0
68 0.0
69 0.001825255191453
70 0.0
71 0.0
72 -0.000416434819034
73 -0.000319125338534
74 -0.000319125338534
75 0.000638250677067
76 0.0
77 0.0
78 0.0
79 0.000303605909049
80 0.000303605909049
81 -0.000607211818098
82 0.0
83 0.0
84 0.0
85 -0.000325515899354
86 -0.000325515899354
87 0.000651031798708
88 0.0
89 0.0
90 0.0
91 0.0
92 0.0
93 0.000154899963284
94 0.0
95 0.0
96 -0.000103910054285
97 0.0
98 0.0
99 -0.000103910054285
100 0.0
101 0.0
102 0.0
103 0.000276554966581
104 0.0
105 0.0
106 -0.000185518711437
107 0.0
108 0.0
109 -0.000185518711437
110 0.0
 Sym=      2.1
 Ene=      -1.1099
 Spin= Alpha
 Occup=    1.996090
1 0.024718864002815
2 0.62606864743754
3 -0.004933846857020
4 -0.000378210708066
5 0.014724552980671
6 0.0
7 0.0
8 -0.21130133179764
9 0.0
10 0.0
11 0.000327852271368
12 0.0
13 0.0
14 -0.025902328100719
15 0.0
16 0.0
17 -0.007052772896531
18 -0.001096752984795
19 -0.001096752984795
20 0.002193505969590
21 0.0
22 0.0
23 0.0
24 -0.001179772595394
25 -0.001179772595394
26 0.002359545190788
27 0.0
28 0.0
29 0.0
30 0.005044174328588
31 0.005044174328588
32 -0.010088348657176
33 0.0
34 0.0
35 0.0
36 0.0
37 0.0
38 0.001755243991083
39 0.0
40 0.0
41 -0.001177453464348
42 0.0
43 0.0
44 -0.001177453464348
45 0.0
46 0.0
47 0.0
48 -0.000632415540299
49 0.0
50 0.0
51 0.000424237241441
52 0.0
53 0.0
54 0.000424237241441
55 0.0
56 0.024718864002815
57 0.62606864743754
58 -0.004933846857020
59 -0.000378210708066
60 0.014724552980671
61 0.0
62 0.0
63 0.21130133179764
64 0.0
65 0.0
66 -0.000327852271368
67 0.0
68 0.0
69 0.025902328100719
70 0.0
71 0.0
72 0.007052772896531
73 -0.001096752984795
74 -0.001096752984795
75 0.002193505969590
76 0.0
77 0.0
78 0.0
79 -0.001179772595394
80 -0.001179772595394
81 0.002359545190788
82 0.0
83 0.0
84 0.0
85 0.005044174328588
86 0.005044174328588
87 -0.010088348657176
88 0.0
89 0.0
90 0.0
91 0.0
92 0.0
93 -0.001755243991083
94 0.0
95 0.0
96 0.001177453464348
97 0.0
98 0.0
99 0.001177453464348
100 0.0
101 0.0
102 0.0
103 0.000632415540299
104 0.0
105 0.0
106 -0.000424237241441
107 0.0
108 0.0
109 -0.000424237241441
110 0.0
 Sym=      2.2
 Ene=      -0.7691
 Spin= Alpha
 Occup=    1.989842
1 -0.021905181590415
2 -0.65773715291556
3 0.001256884227014
4 -0.23306959267736
5 -0.045295417941269
6 0.0
7 0.0
8 0.31230142844114
9 0.0
10 0.0
11 -0.020743705224249
12 0.0
13 0.0
14 -0.11463507510091
15 0.0
16 0.0
17 -0.002347556832961
18 -0.001939405127206
19 -0.001939405127206
20 0.003878810254413
21 0.0
22 0.0
23 0.0
24 -0.001592563488231
25 -0.001592563488231
26 0.003185126976461
27 0.0
28 0.0
29 0.0
30 0.006781765991492
31 0.006781765991492
32 -0.013563531982985
33 0.0
34 0.0
35 0.0
36 0.0
37 0.0
38 -0.000895736402382
39 0.0
40 0.0
41 0.000600878245694
42 0.0
43 0.0
44 0.000600878245694
45 0.0
46 0.0
47 0.0
48 0.000488950289625
49 0.0
50 0.0
51 -0.000327997825566
52 0.0
53 0.0
54 -0.000327997825566
55 0.0
56 0.021905181590415
57 0.65773715291556
58 -0.001256884227014
59 0.23306959267736
60 0.045295417941269
61 0.0
62 0.0
63 0.31230142844114
64 0.0
65 0.0
66 -0.020743705224249
67 0.0
68 0.0
69 -0.11463507510091
70 0.0
71 0.0
72 -0.002347556832961
73 0.001939405127206
74 0.001939405127206
75 -0.003878810254413
76 0.0
77 0.0
78 0.0
79 0.001592563488231
80 0.001592563488231
81 -0.003185126976461
82 0.0
83 0.0
84 0.0
85 -0.006781765991492
86 -0.006781765991492
87 0.013563531982985
88 0.0
89 0.0
90 0.0
91 0.0
92 0.0
93 -0.000895736402382
94 0.0
95 0.0
96 0.000600878245694
97 0.0
98 0.0
99 0.000600878245694
100 0.0
101 0.0
102 0.0
103 0.000488950289625
104 0.0
105 0.0
106 -0.000327997825566
107 0.0
108 0.0
109 -0.000327997825566
110 0.0
 Sym=      3.1
 Ene=      -0.9919
 Spin= Alpha
 Occup=    1.982347
1 -0.021387136365556
2 0.25341244884065
3 0.001392430337068
4 -0.20388754600946
5 -0.026260465079938
6 0.0
7 0.0
8 0.75290998286628
9 0.0
10 0.0
11 -0.063918511408468
12 0.0
13 0.0
14 -0.16401631195078
15 0.0
16 0.0
17 -0.008624387478684
18 -0.013300290955250
19 -0.013300290955250
20 0.026600581910500
21 0.0
22 0.0
23 0.0
24 -0.008536817395858
25 -0.008536817395858
26 0.017073634791717
27 0.0
28 0.0
29 0.0
30 0.007088313357527
31 0.007088313357527
32 -0.014176626715055
33 0.0
34 0.0
35 0.0
36 0.0
37 0.0
38 0.008779506128672
39 0.0
40 0.0
41 -0.005889471753776
42 0.0
43 0.0
44 -0.005889471753776
45 0.0
46 0.0
47 0.0
48 -0.005443351670925
49 0.0
50 0.0
51 0.003651511308488
52 0.0
53 0.0
54 0.003651511308488
55 0.0
56 -0.021387136365556
57 0.25341244884065
58 0.001392430337068
59 -0.20388754600946
60 -0.026260465079938
61 0.0
62 0.0
63 -0.75290998286628
64 0.0
65 0.0
66 0.063918511408468
67 0.0
68 0.0
69 0.16401631195078
70 0.0
71 0.0
72 0.008624387478684
73 -0.013300290955250
74 -0.013300290955250
75 0.026600581910500
76 0.0
77 0.0
78 0.0
79 -0.008536817395858
80 -0.008536817395858
81 0.017073634791717
82 0.0
83 0.0
84 0.0
85 0.007088313357527
86 0.007088313357527
87 -0.014176626715055
88 0.0
89 0.0
90 0.0
91 0.0
92 0.0
93 -0.008779506128672
94 0.0
95 0.0
96 0.005889471753776
97 0.0
98 0.0
99 0.005889471753776
100 0.0
101 0.0
102 0.0
103 0.005443351670925
104 0.0
105 0.0
106 -0.003651511308488
107 0.0
108 0.0
109 -0.003651511308488
110 0.0
 Sym=      3.2
 Ene=       0.2914
 Spin= Alpha
 Occup=    0.064257
1 0.0
2 0.0
3 0.0
4 0.0
5 0.0
6 0.98970498216586
7 0.0
8 0.0
9 0.005696081246456
10 0.0
11 0.0
12 -0.087786660493866
13 0.0
14 0.0
15 0.005135324130898
16 0.0
17 0.0
18 0.0
19 0.0
20 0.0
21 0.0
22 -0.001080136100661
23 0.0
24 0.0
25 0.0
26 0.0
27 0.0
28 0.052761087306595
29 0.0
30 0.0
31 0.0
32 0.0
33 0.0
34 0.051740721502005
35 0.0
36 0.000867312814005
37 0.0
38 0.0
39 0.000387874081974
40 0.0
41 0.0
42 -0.001551496327898
43 0.0
44 0.0
45 0.0
46 -0.013347617099124
47 0.0
48 0.0
49 -0.005969235834256
50 0.0
51 0.0
52 0.023876943337024
53 0.0
54 0.0
55 0.0
56 0.0
57 0.0
58 0.0
59 0.0
60 0.0
61 -0.98970498216586
62 0.0
63 0.0
64 -0.005696081246456
65 0.0
66 0.0
67 0.087786660493866
68 0.0
69 0.0
70 -0.005135324130898
71 0.0
72 0.0
73 0.0
74 0.0
75 0.0
76 0.0
77 -0.001080136100661
78 0.0
79 0.0
80 0.0
81 0.0
82 0.0
83 0.052761087306595
84 0.0
85 0.0
86 0.0
87 0.0
88 0.0
89 0.051740721502005
90 0.0
91 -0.000867312814005
92 0.0
93 0.0
94 -0.000387874081974
95 0.0
96 0.0
97 0.001551496327898
98 0.0
99 0.0
100 0.0
101 0.013347617099124
102 0.0
103 0.0
104 0.005969235834256
105 0.0
106 0.0
107 -0.023876943337024
108 0.0
109 0.0
110 0.0
 Sym=      4.1
 Ene=      -0.5927
 Spin= Alpha
 Occup=    1.941973
1 0.0
2 0.0
3 0.0
4 0.0
5 0.0
6 0.0
7 0.65029766741652
8 0.0
9 0.0
10 -0.011300981929639
11 0.0
12 0.0
13 -0.056684264495128
14 0.0
15 0.0
16 0.003114856855290
17 0.0
18 0.0
19 0.0
20 0.0
21 0.0
22 0.0
23 0.019406578312657
24 0.0
25 0.0
26 0.0
27 0.0
28 0.0
29 0.032457343836339
30 0.0
31 0.0
32 0.0
33 0.0
34 0.0
35 0.005396612611090
36 0.0
37 -0.004499348805556
38 0.0
39 0.0
40 -0.002012169956741
41 0.0
42 0.0
43 0.008048679826965
44 0.0
45 0.0
46 0.0
47 -0.000081480021181
48 0.0
49 0.0
50 -0.000036438973234
51 0.0
52 0.0
53 0.000145755892936
54 0.0
55 0.0
56 0.0
57 0.0
58 0.0
59 0.0
60 0.0
61 0.0
62 0.65029766741652
63 0.0
64 0.0
65 -0.011300981929639
66 0.0
67 0.0
68 -0.056684264495128
69 0.0
70 0.0
71 0.003114856855290
72 0.0
73 0.0
74 0.0
75 0.0
76 0.0
77 0.0
78 -0.019406578312657
79 0.0
80 0.0
81 0.0
82 0.0
83 0.0
84 -0.032457343836339
85 0.0
86 0.0
87 0.0
88 0.0
89 0.0
90 -0.005396612611090
91 0.0
92 -0.004499348805556
93 0.0
94 0.0
95 -0.002012169956741
96 0.0
97 0.0
98 0.008048679826965
99 0.0
100 0.0
101 0.0
102 -0.000081480021181
103 0.0
104 0.0
105 -0.000036438973234
106 0.0
107 0.0
108 0.000145755892936
109 0.0
110 0.0
 Sym=      5.2
 Ene=       1.2318
 Spin= Alpha
 Occup=    0.019261
1 -0.075750310438897
2 -0.86556224774887
3 -0.090261592703192
4 -0.65951522894398
5 -0.26184251530560
6 0.0
7 0.0
8 -1.31890697428792
9 0.0
10 0.0
11 0.065237779925544
12 0.0
13 0.0
14 -0.005315220907799
15 0.0
16 0.0
17 -0.046131302279539
18 -0.008616249943794
19 -0.008616249943794
20 0.017232499887587
21 0.0
22 0.0
23 0.0
24 0.005906552069417
25 0.005906552069417
26 -0.011813104138834
27 0.0
28 0.0
29 0.0
30 0.031171810716295
31 0.031171810716295
32 -0.062343621432590
33 0.0
34 0.0
35 0.0
36 0.0
37 0.0
38 0.020360286632808
39 0.0
40 0.0
41 -0.013658095485702
42 0.0
43 0.0
44 -0.013658095485702
45 0.0
46 0.0
47 0.0
48 0.001829708810383
49 0.0
50 0.0
51 -0.001227405983714
52 0.0
53 0.0
54 -0.001227405983714
55 0.0
56 0.075750310438897
57 0.86556224774887
58 0.090261592703192
59 0.65951522894398
60 0.26184251530560
61 0.0
62 0.0
63 -1.31890697428792
64 0.0
65 0.0
66 0.065237779925544
67 0.0
68 0.0
69 -0.005315220907799
70 0.0
71 0.0
72 -0.046131302279539
73 0.008616249943794
74 0.008616249943794
75 -0.017232499887587
76 0.0
77 0.0
78 0.0
79 -0.005906552069417
80 -0.005906552069417
81 0.011813104138834
82 0.0
83 0.0
84 0.0
85 -0.031171810716295
86 -0.031171810716295
87 0.062343621432590
88 0.0
89 0.0
90 0.0
91 0.0
92 0.0
93 0.020360286632808
94 0.0
95 0.0
96 -0.013658095485702
97 0.0
98 0.0
99 -0.013658095485702
100 0.0
101 0.0
102 0.0
103 0.001829708810383
104 0.0
105 0.0
106 -0.001227405983714
107 0.0
108 0.0
109 -0.001227405983714
110 0.0
 Sym=      5.1
 Ene=      -0.5927
 Spin= Alpha
 Occup=    1.941973
1 0.0
2 0.0
3 0.0
4 0.0
5 0.0
6 -0.65029766741653
7 0.0
8 0.0
9 0.011300981929647
10 0.0
11 0.0
12 0.056684264495129
13 0.0
14 0.0
15 -0.003114856855289
16 0.0
17 0.0
18 0.0
19 0.0
20 0.0
21 0.0
22 -0.019406578312657
23 0.0
24 0.0
25 0.0
26 0.0
27 0.0
28 -0.032457343836338
29 0.0
30 0.0
31 0.0
32 0.0
33 0.0
34 -0.005396612611089
35 0.0
36 0.004499348805556
37 0.0
38 0.0
39 0.002012169956741
40 0.0
41 0.0
42 -0.008048679826965
43 0.0
44 0.0
45 0.0
46 0.000081480021182
47 0.0
48 0.0
49 0.000036438973234
50 0.0
51 0.0
52 -0.000145755892936
53 0.0
54 0.0
55 0.0
56 0.0
57 0.0
58 0.0
59 0.0
60 0.0
61 -0.65029766741653
62 0.0
63 0.0
64 0.011300981929647
65 0.0
66 0.0
67 0.056684264495129
68 0.0
69 0.0
70 -0.003114856855289
71 0.0
72 0.0
73 0.0
74 0.0
75 0.0
76 0.0
77 0.019406578312657
78 0.0
79 0.0
80 0.0
81 0.0
82 0.0
83 0.032457343836338
84 0.0
85 0.0
86 0.0
87 0.0
88 0.0
89 0.005396612611089
90 0.0
91 0.004499348805556
92 0.0
93 0.0
94 0.002012169956741
95 0.0
96 0.0
97 -0.008048679826965
98 0.0
99 0.0
100 0.0
101 0.000081480021182
102 0.0
103 0.0
104 0.000036438973234
105 0.0
106 0.0
107 -0.000145755892936
108 0.0
109 0.0
110 0.0
 Sym=      4.2
 Ene=       0.2914
 Spin= Alpha
 Occup=    0.064257
1 0.0
2 0.0
3 0.0
4 0.0
5 0.0
6 0.0
7 -0.98970498216586
8 0.0
9 0.0
10 -0.005696081246453
11 0.0
12 0.0
13 0.087786660493884
14 0.0
15 0.0
16 -0.005135324130901
17 0.0
18 0.0
19 0.0
20 0.0
21 0.0
22 0.0
23 0.001080136100660
24 0.0
25 0.0
26 0.0
27 0.0
28 0.0
29 -0.052761087306590
30 0.0
31 0.0
32 0.0
33 0.0
34 0.0
35 -0.051740721502001
36 0.0
37 -0.000867312814005
38 0.0
39 0.0
40 -0.000387874081974
41 0.0
42 0.0
43 0.001551496327898
44 0.0
45 0.0
46 0.0
47 0.013347617099123
48 0.0
49 0.0
50 0.005969235834255
51 0.0
52 0.0
53 -0.023876943337022
54 0.0
55 0.0
56 0.0
57 0.0
58 0.0
59 0.0
60 0.0
61 0.0
62 0.98970498216586
63 0.0
64 0.0
65 0.005696081246453
66 0.0
67 0.0
68 -0.087786660493884
69 0.0
70 0.0
71 0.005135324130901
72 0.0
73 0.0
74 0.0
75 0.0
76 0.0
77 0.0
78 0.001080136100660
79 0.0
80 0.0
81 0.0
82 0.0
83 0.0
84 -0.052761087306590
85 0.0
86 0.0
87 0.0
88 0.0
89 0.0
90 -0.051740721502001
91 0.0
92 0.000867312814005
93 0.0
94 0.0
95 0.000387874081974
96 0.0
97 0.0
98 -0.001551496327898
99 0.0
100 0.0
101 0.0
102 -0.013347617099123
103 0.0
104 0.0
105 -0.005969235834255
106 0.0
107 0.0
108 0.023876943337022
109 0.0
110 0.0
 Sym=      6.2
 Ene=       0.0842
 Spin= Alpha
 Occup=    0.000000
1 0.003679406834881
2 0.076631057374006
3 -0.008180345747367
4 4.24953685677171
5 13.5810079194911
6 0.0
7 0.0
8 -0.075931640380760
9 0.0
10 0.0
11 0.16073838122537
12 0.0
13 0.0
14 2.35574053453055
15 0.0
16 0.0
17 3.59647015347541
18 -0.000648068964860
19 -0.000648068964860
20 0.001296137929721
21 0.0
22 0.0
23 0.0
24 -0.057480252079198
25 -0.057480252079198
26 0.11496050415840
27 0.0
28 0.0
29 0.0
30 -0.25143440802779
31 -0.25143440802779
32 0.50286881605558
33 0.0
34 0.0
35 0.0
36 0.0
37 0.0
38 0.007573621705094
39 0.0
40 0.0
41 -0.005080539890538
42 0.0
43 0.0
44 -0.005080539890538
45 0.0
46 0.0
47 0.0
48 0.026061129746907
49 0.0
50 0.0
51 -0.017482337305358
52 0.0
53 0.0
54 -0.017482337305358
55 0.0
56 -0.003679406834881
57 -0.076631057374006
58 0.008180345747367
59 -4.24953685677171
60 -13.5810079194911
61 0.0
62 0.0
63 -0.075931640380760
64 0.0
65 0.0
66 0.16073838122537
67 0.0
68 0.0
69 2.35574053453055
70 0.0
71 0.0
72 3.59647015347541
73 0.000648068964860
74 0.000648068964860
75 -0.001296137929721
76 0.0
77 0.0
78 0.0
79 0.057480252079198
80 0.057480252079198
81 -0.11496050415840
82 0.0
83 0.0
84 0.0
85 0.25143440802779