[Molden Format]
[Molpro variables]
_NUMVAR=  897.0000000000000    
_AVOGAD= 0.6022136736000000E+24
_BOLTZ= 0.1380658000000000E-22
_CLIGHT=  29979245800.00000    
_EV= 0.3674932379085202E-01
_ENULL= 0.8854187817000000E-11
_KJOULE= 0.3808798324128737E-03
_KJOULE/MOL= 0.3808798324128737E-03
_CM= 0.4556335267302901E-05
_CM-1= 0.4556335267302901E-05
_DEB2SI= 0.3335641000000000E-29
_AMU2AU=  1822.888390000000    
_KCAL= 0.1593601117815568E-02
_KCAL/MOL= 0.1593601117815568E-02
_KELVIN= 0.3166811411060229E-05
_JOULE= 0.4359748200000000E-17
_HERTZ= 0.1519829846004524E-15
_HZ= 0.1519829846004524E-15
_JPCAL=  4.184000000000000    
_PLANCK= 0.6626075540000000E-33
_TOA= 0.5291772109200000    
_TOANG= 0.5291772109200000    
_TORAD= 0.1745329251994330E-01
_TOCM=  219474.6306700000    
_TODEBYE=  2.541580000000000    
_TOE= 0.4803242000000000E-09
_TOEV=  27.21138505000000    
_TOHERTZ=  6579683920729000.    
_TOHZ=  6579683920729000.    
_TOK=  315775.0400000000    
_TOKCAL=  627.5096000000000    
_TOKELVIN=  315775.0400000000    
_TOKJ=  2625.500000000000    
_TOKJOULE=  2625.500000000000    
_TOKG= 0.1660565586000000E-26
_ANG=  1.889726124565062    
_ANGSTROM=  1.889726124565062    
_RPAREF=  0.000000000000000    
_RPADISS=  0.000000000000000    
_IGNORE_UNDEF=  2.000000000000000    
_STRICTCHECK=  0.000000000000000    
_SEW_ONEEL=  0.000000000000000    
_CPPDONE=FALSE
_DKROLL_DONE=  0.000000000000000    
_FOCKDONE=TRUE
_GRADONE=FALSE
_HESSDONE=FALSE
_INTDONE=TRUE
_SCFDONE=TRUE
_MODUL_BLOCK=FALSE
_MODUL_CUDA=FALSE
_MODUL_SLATER=FALSE
_MODUL_MRCC=FALSE
_MODUL_NBO6=FALSE
_MODUL_NECI=TRUE
_MODUL_AIMS=TRUE
_MRCC_EXEC=
_FITC_AO_SAVED=FALSE
_FITC_MO_SAVED=FALSE
_SHARED_FS=TRUE
_LSTYP=SEWARD
_INTYP=INTS
_GEOMTYP=ZMAT
_GRADTYP=ALASKA
_DIRECT=FALSE
_DKHO= -1.000000000000000    
_SYNCM=  0.000000000000000    
_BASIS=AUG-CC-PVTZ
_ZORIENT=  0.000000000000000    
_NELEC=  10.00000000000000    
!SPIN=  0.000000000000000    
_QSDSTEP=  0.000000000000000    
_QSDIRC=  0.000000000000000    
_PROGRAM=RHF-SCF
_CPUSTEP= 0.2000000000000002    
_SYSSTEP= 0.4000000000000004E-01
_WALLSTEP= 0.3900000000000000    
!DFSCF=  0.000000000000000    
!SCSGRD=  0.000000000000000    
_BASINP=  610.0000000000000    
_CPUTOT=  1.600000000000000    
_CPUSORT= 0.2100000000000000    
_SYSSORT= 0.3000000000000003E-01
_WALLSORT= 0.3200000002980232    
_DFTEXFAC=  1.000000000000000    
_DMX=  0.000000000000000    
_DMY=  0.000000000000000    
_DMZ= 0.7630238919693926    
_DMX_SCF=  0.000000000000000    
_DMY_SCF=  0.000000000000000    
_DMZ_SCF= 0.7630238919693926    
_EHOMO=-0.5112368090014537    
_ELUMO= 0.2975373354087893E-01
_EIGS= -20.56350049329804    
_ENERGY= -76.06120311938969    
_ENERGY_METHOD=RHF
_ENERGY_BASIS=aug-cc-pVTZ
_GEOMETRY_METHOD=
_GEOMETRY_BASIS=
_ENUC=  9.348802247698661    
_GRADEXFAC=  9999.000000000000    
_GRADMETHOD=  1.000000000000000    
_NMRMETHOD=  0.000000000000000    
_NMRMAGNET=  0.000000000000000    
!GRID_FREEZE= -1.000000000000000    
_ITERATIONS=  9.000000000000000    
_LASTNELEC=  10.00000000000000    
_LASTSPIN=  0.000000000000000    
_LASTSYM=  1.000000000000000    
_MPP_PROG=  1.000000000000000    
_MSNSTATES=  0.000000000000000    
_RS2PHASE=  0.000000000000000    
_NPROC_MPP=  23.00000000000000    
_NPROC_MPPX=  23.00000000000000    
_NPROC_SMP=  1.000000000000000    
_NUMSTEP=  0.000000000000000    
_ORBITAL=  2100.200000000000    
_PI=  3.141592653589793    
_SEIG_MIN= 0.3697027323475132E-03
_SEWPROP=TRUE
_STATUS=  1.000000000000000    
_SYSTOT= 0.1900000000000001    
_VERSION=  2015001.000000000    
_WALLTOT=  3.040000000000000    
_DATE=11-Apr-20
_LASTORB=RHF
_MACHINE= 64 bit mpp version
_OUTPUT=/global/cscratch1/sd/rbello/Quantum_Chem/molpro.xml
_PGROUP=C2v
_TIME=13:36:56
_LIBMOL=/global/common/cori/software/molpro/2015/molprop_2015_1_linux_x86_64_i8/lib/
_VIGRDC=  0.000000000000000    
!VIBCNT=  0.000000000000000    
!RGHFCNT=  0.000000000000000    
!SURFREC=  0.000000000000000    
!ROTREC=  0.000000000000000    
!POLYREC=  0.000000000000000    
!DIPREC=  0.000000000000000    
!DIP4DREC=  0.000000000000000    
!DIPROT=  0.000000000000000    
!DIP4DROT=  0.000000000000000    
!PTREC=  0.000000000000000    
!PT4DREC=  0.000000000000000    
!VSCFREC=  0.000000000000000    
!VCIREC=  0.000000000000000    
!PVCIREC=  0.000000000000000    
!VMP2REC=  0.000000000000000    
!VMCSCFREC=  0.000000000000000    
!VMRCIREC=  0.000000000000000    
!VIBSTATEREC=  0.000000000000000    
!VIBSTATECNT=  0.000000000000000    
!VIBINFO=  0.000000000000000    
!GAREC=  0.000000000000000    
!SCFORB=  21002.00000000000    
!NEWMOL= -1.000000000000000    
!NEWSYM= -1.000000000000000    
_SLFILES=slscratch
_NGSSTO=  9.000000000000000    
_SIN=SIN
_COS=COS
_TAN=TAN
_ACOS=ACOS
_ASIN=ASIN
_ATAN=ATAN
_COSH=COSH
_SINH=SINH
_TANH=TANH
_ABS=ABS
_MOD=MOD
_ERF=ERF
_REFC=REFC
_ERFC=ERFC
_HYPOT=HYPOT
_J0=J0
_J1=J1
_JN=JN
_GAMMA=GAMMA
_LGAMMA=LGAMMA
_Y0=Y0
_Y1=Y1
_YN=YN
_EXP=EXP
_LOG=LOG
_LOG10=LOG10
_SQRT=SQRT
_INT=INT
_NINT=NINT
_MAX=MAX
_MIN=MIN
_COSMO=  0.000000000000000    
_COSMOIT=  0.000000000000000    
_COSMOES=  0.000000000000000    
_COSMOEDS=  0.000000000000000    
_COSMOEC=  0.000000000000000    
_COSMOEDCORR=  0.000000000000000    
_FEPSI=  1.000000000000000    
_SL_IsMM=  0.000000000000000    
_SL_NSYM=  4.000000000000000    
_SL_System_BitSw=  0.000000000000000    
_SL_Unique_atoms=  0.000000000000000    
_SL_GRAD=  0.000000000000000    
_SL_MAXUPD_Hess=  5.000000000000000    
_SL_N_PRINT_COD=  5.000000000000000    
_SL_PRINT_CODES=  0.000000000000000    
_SL_BasType=  0.000000000000000    
_SL_Energy_Pred=  0.000000000000000    
_SL_New_Coords=  0.000000000000000    
_SL_Total_Nuclea=  0.000000000000000    
_SL_Highest_Mltp=  0.000000000000000    
_SL_Ref_Geom=  0.000000000000000    
_SL_Symmetry_ope=  1.000000000000000    
_SL_agrad=  0.000000000000000    
_SL_GrdMax=  0.000000000000000    
_SL_GrdNorm=  0.000000000000000    
_SL_GrdRMS=  0.000000000000000    
_SL_Hss_Q=  0.000000000000000    
_SL_Hss_X=  0.000000000000000    
_SL_BMxOld=  0.000000000000000    
_SL_KtB=  0.000000000000000    
_SL_TROld=  0.000000000000000    
_SL_No_of_Intern=  0.000000000000000    
_SL_Hess=  0.000000000000000    
_SL_K=  0.000000000000000    
!LATTICE= -1.000000000000000    
!NEWLATTICE=  0.000000000000000    
!LATGRAD_VAR=FALSE
!SEW_LATTICE=  1.000000000000000    
!LOCAL=  0.000000000000000    
!SAVEDOM= -1.000000000000000    
!RESTDOM= -1.000000000000000    
!SAVEDOM_HF= -1.000000000000000    
!RESTDOM_HF= -1.000000000000000    
!HESSREC=  0.000000000000000    
!FREQREC=  0.000000000000000    
!NMODREC=  0.000000000000000    
!GTASKS=  0.000000000000000    
!HTASKS=  0.000000000000000    
!SAVEDOM_EOM= -1.000000000000000    
!RESTDOM_EOM= -1.000000000000000    
!GRADSTATE= -1.000000000000000    
!THRCHG= 0.1000000000000000    
!DEBUG= -1.000000000000000    
!CFIT_CPHF=  0.000000000000000    
!RDOMAUX_CPHF=  3.000000000000000    
!THRAO_CPHF= 0.1000000000000000E-09
!THRMO_CPHF= 0.1000000000000000E-08
!THROV_CPHF= 0.1000000000000000E-11
!THRSW_CPHF= 0.1000000000000000E-09
!THRPROD_CPHF= 0.1000000000000000E-08
!THRAOPR_CPHF= 0.1000000000000000E-11
!CFIT_SCFGRD=  0.000000000000000    
!RDOMAUX_SCFGRD=  5.000000000000000    
!THRAO_SCFGRD= 0.1000000000000000E-09
!THRMO_SCFGRD= 0.1000000000000000E-08
!THROV_SCFGRD= 0.1000000000000000E-11
!THRSW_SCFGRD= 0.1000000000000000E-09
!THRPROD_SCFGRD= 0.1000000000000000E-08
!THRAOPR_SCFGRD= 0.1000000000000000E-11
!LOCFIT_SCF=  0.000000000000000    
!LOCFIT_MP2= -1.000000000000000    
_RIDOM=  0.000000000000000    
!CC2_METHOD=  0.000000000000000    
_BASIS2006=FALSE
_SVDDEL= -1.000000000000000    
_SVDDELA= -1.000000000000000    
_SVDDELP= -1.000000000000000    
_SVDDELF= -1.000000000000000    
_SVDDELS= -1.000000000000000    
_SVDDEL_ABS= -1.000000000000000    
_SVDDELA_ABS= -1.000000000000000    
_SVDDELP_ABS= -1.000000000000000    
_SVDDELF_ABS= -1.000000000000000    
_SVDDELS_ABS= -1.000000000000000    
_MAXBASIS=  0.000000000000000    
!OPT_CONICAL=  0.000000000000000    
!CLEARSP_JGRID=  0.000000000000000    
_GRDHYBR=  0.000000000000000    
_STATEGRAD=  1.000000000000000    
_4EXT_NDISKS=  1.000000000000000    
!ZMP=  0.000000000000000    
_MAXIT_ZMP=  500.0000000000000    
_MAXDIS_ZMP=  100.0000000000000    
_ACCU_ZMP=  14.00000000000000    
_SHIFTA_ZMP= -100.0000000000000    
!EMBEDFLAG=  1.000000000000000    
!EMBED=FALSE
!EMBED_F12=FALSE
!EMBEDNUC=  0.000000000000000    
_EMBEDENERGY=  0.000000000000000    
_KSPACETIME=  0.000000000000000    
_RSPACETIME=  0.000000000000000    
!EMBED_DFC=FALSE
!NUM_VOIDS=  0.000000000000000    
_IBODY=  0.000000000000000    
_EMBE_TOTAL=  0.000000000000000    
_EMBE_HF=  0.000000000000000    
_EMBE_CORR=  0.000000000000000    
!EMBED_PROJ=FALSE
!EMBED_TRUNC=  0.000000000000000    
!EMB_PROJ_ZMU=  1000000.000000000    
!CORRECTION=  0.000000000000000    
!CORRECTION_HF=  0.000000000000000    
!EMBED_ENERGY=  0.000000000000000    
!EMBED_NAXC=FALSE
!EMBED_AORB=  0.000000000000000    
!EMBED_NACORR=  0.000000000000000    
!EMBED_MP2=FALSE
!EMBED_TRUNC_PERTURBATION=FALSE
!EMBED_FROZEN=  0.000000000000000    
_CHANGE_BASIS=FALSE
_RESTORE_BASIS=FALSE
_FIX_EMBED_GUESS=FALSE
!EDFT=  0.000000000000000    
_IFASTLATGRAD=  0.000000000000000    
_SINDEX=  0.000000000000000    
_AVDOM_OSV=  0.000000000000000    
_AVDOM_PNO=  0.000000000000000    
_AVDOM_PAO=  0.000000000000000    
_AVDOM_LMO=  0.000000000000000    
_CC2OSV_FLAG=  0.000000000000000    
_TMADC2_FLAG=FALSE
_PROPADC2_FLAG=FALSE
_LEN_VirQ=  0.000000000000000    
_GRDCC2LR_FLAG=FALSE
_GRDADC2_FLAG=FALSE
R=  0.000000000000000    
AHOH=  104.4776000000000    
GX1=  0.000000000000000    
GY1=  0.000000000000000    
GZ1=  0.000000000000000    
GX2=  0.000000000000000    
GY2= 0.7530886081000000    
GZ2= 0.5642560353000000    
GX3=  0.000000000000000    
GY3=-0.7530886081000000    
GZ3= 0.5642560353000000    
ACCU=  13.00000000000000    
NITORT=  1.000000000000000    
[Atoms] Angs
O     1    8         0.0000000000        0.0000000000        0.0000000000
H     2    1         0.0000000000        0.7530886081        0.5642560353
H     3    1         0.0000000000       -0.7530886081        0.5642560353
[GTO]
   1 0
 s   10  1.00
  0.1533000000D+05  0.5079996682D-03
  0.2299000000D+04  0.3928997434D-02
  0.5224000000D+03  0.2024298678D-01
  0.1473000000D+03  0.7918094828D-01
  0.4755000000D+02  0.2306868493D+00
  0.1676000000D+02  0.4331177171D+00
  0.6207000000D+01  0.3502597712D+00
  0.1752000000D+01  0.4272797209D-01
  0.6882000000D+00 -0.8153994674D-02
  0.2384000000D+00  0.2380998445D-02
 s   10  1.00
  0.1533000000D+05 -0.1150000604D-03
  0.2299000000D+04 -0.8950004697D-03
  0.5224000000D+03 -0.4636002433D-02
  0.1473000000D+03 -0.1872400983D-01
  0.4755000000D+02 -0.5846303068D-01
  0.1676000000D+02 -0.1364630716D+00
  0.6207000000D+01 -0.1757400922D+00
  0.1752000000D+01  0.1609340845D+00
  0.6882000000D+00  0.6034183167D+00
  0.2384000000D+00  0.3787651988D+00
 s   10  1.00
  0.1533000000D+05  0.0000000000D+00
  0.2299000000D+04  0.0000000000D+00
  0.5224000000D+03  0.0000000000D+00
  0.1473000000D+03  0.0000000000D+00
  0.4755000000D+02  0.0000000000D+00
  0.1676000000D+02  0.0000000000D+00
  0.6207000000D+01  0.0000000000D+00
  0.1752000000D+01  0.1000000000D+01
  0.6882000000D+00  0.0000000000D+00
  0.2384000000D+00  0.0000000000D+00
 s   10  1.00
  0.1533000000D+05  0.0000000000D+00
  0.2299000000D+04  0.0000000000D+00
  0.5224000000D+03  0.0000000000D+00
  0.1473000000D+03  0.0000000000D+00
  0.4755000000D+02  0.0000000000D+00
  0.1676000000D+02  0.0000000000D+00
  0.6207000000D+01  0.0000000000D+00
  0.1752000000D+01  0.0000000000D+00
  0.6882000000D+00  0.0000000000D+00
  0.2384000000D+00  0.1000000000D+01
 s    1  1.00
  0.7376000000D-01  0.1000000000D+01
 p    5  1.00
  0.3446000000D+02  0.1592799074D-01
  0.7749000000D+01  0.9973994203D-01
  0.2280000000D+01  0.3104918195D+00
  0.7156000000D+00  0.4910257146D+00
  0.2140000000D+00  0.3363368045D+00
 p    5  1.00
  0.3446000000D+02  0.0000000000D+00
  0.7749000000D+01  0.0000000000D+00
  0.2280000000D+01  0.0000000000D+00
  0.7156000000D+00  0.1000000000D+01
  0.2140000000D+00  0.0000000000D+00
 p    5  1.00
  0.3446000000D+02  0.0000000000D+00
  0.7749000000D+01  0.0000000000D+00
  0.2280000000D+01  0.0000000000D+00
  0.7156000000D+00  0.0000000000D+00
  0.2140000000D+00  0.1000000000D+01
 p    1  1.00
  0.5974000000D-01  0.1000000000D+01
 d    1  1.00
  0.2314000000D+01  0.1000000000D+01
 d    1  1.00
  0.6450000000D+00  0.1000000000D+01
 d    1  1.00
  0.2140000000D+00  0.1000000000D+01
 f    1  1.00
  0.1428000000D+01  0.1000000000D+01
 f    1  1.00
  0.5000000000D+00  0.1000000000D+01
   2 0
 s    5  1.00
  0.3387000000D+02  0.6067999217D-02
  0.5095000000D+01  0.4530799416D-01
  0.1159000000D+01  0.2028219738D+00
  0.3258000000D+00  0.5039029350D+00
  0.1027000000D+00  0.3834209505D+00
 s    5  1.00
  0.3387000000D+02  0.0000000000D+00
  0.5095000000D+01  0.0000000000D+00
  0.1159000000D+01  0.0000000000D+00
  0.3258000000D+00  0.1000000000D+01
  0.1027000000D+00  0.0000000000D+00
 s    5  1.00
  0.3387000000D+02  0.0000000000D+00
  0.5095000000D+01  0.0000000000D+00
  0.1159000000D+01  0.0000000000D+00
  0.3258000000D+00  0.0000000000D+00
  0.1027000000D+00  0.1000000000D+01
 s    1  1.00
  0.2526000000D-01  0.1000000000D+01
 p    1  1.00
  0.1407000000D+01  0.1000000000D+01
 p    1  1.00
  0.3880000000D+00  0.1000000000D+01
 p    1  1.00
  0.1020000000D+00  0.1000000000D+01
 d    1  1.00
  0.1057000000D+01  0.1000000000D+01
 d    1  1.00
  0.2470000000D+00  0.1000000000D+01
   3 0
 s    5  1.00
  0.3387000000D+02  0.6067999217D-02
  0.5095000000D+01  0.4530799416D-01
  0.1159000000D+01  0.2028219738D+00
  0.3258000000D+00  0.5039029350D+00
  0.1027000000D+00  0.3834209505D+00
 s    5  1.00
  0.3387000000D+02  0.0000000000D+00
  0.5095000000D+01  0.0000000000D+00
  0.1159000000D+01  0.0000000000D+00
  0.3258000000D+00  0.1000000000D+01
  0.1027000000D+00  0.0000000000D+00
 s    5  1.00
  0.3387000000D+02  0.0000000000D+00
  0.5095000000D+01  0.0000000000D+00
  0.1159000000D+01  0.0000000000D+00
  0.3258000000D+00  0.0000000000D+00
  0.1027000000D+00  0.1000000000D+01
 s    1  1.00
  0.2526000000D-01  0.1000000000D+01
 p    1  1.00
  0.1407000000D+01  0.1000000000D+01
 p    1  1.00
  0.3880000000D+00  0.1000000000D+01
 p    1  1.00
  0.1020000000D+00  0.1000000000D+01
 d    1  1.00
  0.1057000000D+01  0.1000000000D+01
 d    1  1.00
  0.2470000000D+00  0.1000000000D+01
[MO]
 Sym=      1.1
 Ene=     -20.5635
 Spin= Alpha
 Occup=    2.000000
1 0.99886977633685
2 -0.002215397472811
3 0.001339812894581
4 -0.000004180768445
5 0.000548838632543
6 0.0
7 0.0
8 0.004778581946589
9 0.0
10 0.0
11 -0.003730531833399
12 0.0
13 0.0
14 -0.001157169841262
15 0.0
16 0.0
17 0.000185654641842
18 -0.000090895245319
19 0.000082587393316
20 0.000008307852004
21 0.0
22 0.0
23 0.0
24 0.000444705577625
25 -0.000386073005962
26 -0.000058632571663
27 0.0
28 0.0
29 0.0
30 -0.000178445813651
31 0.000109582826994
32 0.000068862986658
33 0.0
34 0.0
35 0.0
36 0.0
37 0.0
38 -0.000039290663317
39 0.0
40 0.0
41 -0.000009119140879
42 0.0
43 0.0
44 0.000061833097313
45 0.0
46 0.0
47 0.0
48 0.000101391442167
49 0.0
50 0.0
51 0.000087807533700
52 0.0
53 0.0
54 -0.000223838427914
55 0.0
56 0.002239240169404
57 -0.000535094559902
58 -0.001276546316515
59 0.000012380675065
60 0.0
61 -0.000102597933280
62 -0.000055538548035
63 0.0
64 -0.000530661889263
65 -0.000462529931180
66 0.0
67 -0.000076124646814
68 -0.000038598432129
69 0.000102705643914
70 -0.000063087655025
71 -0.000039617988889
72 0.0
73 0.0
74 -0.000189205570701
75 -0.000216447626108
76 0.000193585960579
77 0.000022861665528
78 0.0
79 0.0
80 0.000379059881317
81 0.002239240169404
82 -0.000535094559902
83 -0.001276546316515
84 0.000012380675065
85 0.0
86 0.000102597933280
87 -0.000055538548035
88 0.0
89 0.000530661889263
90 -0.000462529931180
91 0.0
92 0.000076124646814
93 -0.000038598432129
94 0.000102705643914
95 -0.000063087655025
96 -0.000039617988889
97 0.0
98 0.0
99 0.000189205570701
100 -0.000216447626108
101 0.000193585960579
102 0.000022861665528
103 0.0
104 0.0
105 -0.000379059881317
 Sym=      2.1
 Ene=      -1.3608
 Spin= Alpha
 Occup=    2.000000
1 -0.009005754475280
2 0.86436686111520
3 -0.006407385856984
4 -0.038605073838692
5 0.036275666155537
6 0.0
7 0.0
8 0.11898708174989
9 0.0
10 0.0
11 0.005638323883079
12 0.0
13 0.0
14 -0.024514884439977
15 0.0
16 0.0
17 0.002740375126296
18 -0.003791740787373
19 0.002986598946864
20 0.000805141840509
21 0.0
22 0.0
23 0.0
24 -0.008721115564344
25 0.005481822951864
26 0.003239292612480
27 0.0
28 0.0
29 0.0
30 0.003042212952919
31 -0.003882157849674
32 0.000839944896755
33 0.0
34 0.0
35 0.0
36 0.0
37 0.0
38 -0.000991638336699
39 0.0
40 0.0
41 -0.001678948213850
42 0.0
43 0.0
44 0.003009370651822
45 0.0
46 0.0
47 0.0
48 0.000768163510386
49 0.0
50 0.0
51 -0.000482673418634
52 0.0
53 0.0
54 -0.000547926077601
55 0.0
56 0.38456456798457
57 -0.11716685325834
58 -0.16406796611782
59 -0.001479589393740
60 0.0
61 -0.011294498074061
62 -0.007655195252931
63 0.0
64 -0.007608871324751
65 -0.005152537821043
66 0.0
67 0.005833248954320
68 0.004713848190301
69 -0.001247566250506
70 0.001207507292598
71 0.000040058957908
72 0.0
73 0.0
74 0.002268881281902
75 0.000736815666563
76 -0.000713125445405
77 -0.000023690221158
78 0.0
79 0.0
80 -0.001331462091426
81 0.38456456798457
82 -0.11716685325834
83 -0.16406796611782
84 -0.001479589393740
85 0.0
86 0.011294498074061
87 -0.007655195252931
88 0.0
89 0.007608871324751
90 -0.005152537821043
91 0.0
92 -0.005833248954320
93 0.004713848190301
94 -0.001247566250506
95 0.001207507292598
96 0.000040058957908
97 0.0
98 0.0
99 -0.002268881281902
100 0.000736815666563
101 -0.000713125445405
102 -0.000023690221158
103 0.0
104 0.0
105 0.001331462091426
 Sym=      1.3
 Ene=      -0.7304
 Spin= Alpha
 Occup=    2.000000
1 0.0
2 0.0
3 0.0
4 0.0
5 0.0
6 0.0
7 0.73815430273805
8 0.0
9 0.0
10 -0.026819076751969
11 0.0
12 0.0
13 -0.10657425759791
14 0.0
15 0.0
16 0.006926064601574
17 0.0
18 0.0
19 0.0
20 0.0
21 0.0
22 0.0
23 0.012711951475820
24 0.0
25 0.0
26 0.0
27 0.0
28 0.0
29 0.021298103094368
30 0.0
31 0.0
32 0.0
33 0.0
34 0.0
35 -0.003589364678257
36 0.0
37 0.002391323878649
38 0.0
39 0.0
40 -0.002744043270826
41 0.0
42 0.0
43 -0.000464254378501
44 0.0
45 0.0
46 0.0
47 0.000023279949976
48 0.0
49 0.0
50 -0.002158098299440
51 0.0
52 0.0
53 0.002126864969044
54 0.0
55 0.0
56 0.60209510862413
57 -0.071042421448563
58 -0.19387421210993
59 -0.004364611521312
60 0.0
61 -0.010830379698337
62 -0.013352911214599
63 0.0
64 -0.021787686542036
65 -0.028951093729638
66 0.0
67 0.007445167509842
68 -0.000279911664209
69 -0.004134498464566
70 0.002285814568047
71 0.001848683896519
72 0.0
73 0.0
74 0.006866322358874
75 0.000255625900940
76 -0.002165832446626
77 0.001910206545686
78 0.0
79 0.0
80 0.002269635490242
81 -0.60209510862413
82 0.071042421448563
83 0.19387421210993
84 0.004364611521312
85 0.0
86 -0.010830379698337
87 0.013352911214599
88 0.0
89 -0.021787686542036
90 0.028951093729638
91 0.0
92 0.007445167509842
93 0.000279911664209
94 0.004134498464566
95 -0.002285814568047
96 -0.001848683896519
97 0.0
98 0.0
99 0.006866322358874
100 -0.000255625900940
101 0.002165832446626
102 -0.001910206545686
103 0.0
104 0.0
105 0.002269635490242
 Sym=      3.1
 Ene=      -0.5845
 Spin= Alpha
 Occup=    2.000000
1 -0.005172169235380
2 -0.31093152248538
3 -0.001357061246131
4 -0.21546806469399
5 -0.081988681184594
6 0.0
7 0.0
8 0.81297613351469
9 0.0
10 0.0
11 -0.014050328440091
12 0.0
13 0.0
14 -0.060412980840477
15 0.0
16 0.0
17 0.013684487439054
18 -0.006059984405736
19 0.000198226794081
20 0.005861757611655
21 0.0
22 0.0
23 0.0
24 -0.008683955973643
25 -0.007044553981555
26 0.015728509955199
27 0.0
28 0.0
29 0.0
30 0.007087130685124
31 -0.011088417796421
32 0.004001287111297
33 0.0
34 0.0
35 0.0
36 0.0
37 0.0
38 0.000497351551703
39 0.0
40 0.0
41 -0.002783605126067
42 0.0
43 0.0
44 0.002116337999073
45 0.0
46 0.0
47 0.0
48 0.001408141825528
49 0.0
50 0.0
51 -0.000434335002391
52 0.0
53 0.0
54 -0.001454885503914
55 0.0
56 0.35369057553999
57 0.000173827622742
58 -0.074709319572065
59 0.001728439701743
60 0.0
61 -0.010019010691196
62 0.001842142136763
63 0.0
64 -0.032511113003284
65 0.000445386409428
66 0.0
67 -0.003613815616295
68 0.009695948308441
69 -0.001814130383079
70 0.004061702447397
71 -0.002247572064318
72 0.0
73 0.0
74 0.001787567199276
75 -0.000694016119023
76 0.002619750086590
77 -0.001925733967567
78 0.0
79 0.0
80 -0.002974282832664
81 0.35369057553999
82 0.000173827622742
83 -0.074709319572065
84 0.001728439701743
85 0.0
86 0.010019010691196
87 0.001842142136763
88 0.0
89 0.032511113003284
90 0.000445386409428
91 0.0
92 0.003613815616295
93 0.009695948308441
94 -0.001814130383079
95 0.004061702447397
96 -0.002247572064318
97 0.0
98 0.0
99 -0.001787567199276
100 -0.000694016119023
101 0.002619750086590
102 -0.001925733967567
103 0.0
104 0.0
105 0.002974282832664
 Sym=      1.2
 Ene=      -0.5112
 Spin= Alpha
 Occup=    2.000000
1 0.0
2 0.0
3 0.0
4 0.0
5 0.0
6 0.91392464370335
7 0.0
8 0.0
9 0.000635390645881
10 0.0
11 0.0
12 0.015164869098486
13 0.0
14 0.0
15 0.032526802023126
16 0.0
17 0.0
18 0.0
19 0.0
20 0.0
21 0.0
22 0.005875794417951
23 0.0
24 0.0
25 0.0
26 0.0
27 0.0
28 0.013926901465910
29 0.0
30 0.0
31 0.0
32 0.0
33 0.0
34 0.004836731069519
35 0.0
36 -0.003662119908067
37 0.0
38 0.0
39 0.003547098123584
40 0.0
41 0.0
42 0.001366151310132
43 0.0
44 0.0
45 0.0
46 -0.001189003866450
47 0.0
48 0.0
49 0.000798387395581
50 0.0
51 0.0
52 0.000796828686954
53 0.0
54 0.0
55 0.0
56 0.0
57 0.0
58 0.0
59 0.0
60 0.011101751110132
61 0.0
62 0.0
63 0.031374349509090
64 0.0
65 0.0
66 0.019208714129337
67 0.0
68 0.0
69 0.0
70 0.0
71 0.0
72 -0.003950728150160
73 -0.002940035432078
74 0.0
75 0.0
76 0.0
77 0.0
78 -0.006462229063790
79 -0.004449227034609
80 0.0
81 0.0
82 0.0
83 0.0
84 0.0
85 0.011101751110132
86 0.0
87 0.0
88 0.031374349509090
89 0.0
90 0.0
91 0.019208714129337
92 0.0
93 0.0
94 0.0
95 0.0
96 0.0
97 0.003950728150160
98 -0.002940035432078
99 0.0
100 0.0
101 0.0
102 0.0
103 0.006462229063790
104 -0.004449227034609
105 0.0
 Sym=      4.1
 Ene=       0.0298
 Spin= Alpha
 Occup=    0.000000
1 -0.000683525048464
2 -0.10331329222484
3 0.003513856703149
4 -0.80234284172829
5 -2.46106816684535
6 0.0
7 0.0
8 -0.068537326266230
9 0.0
10 0.0
11 -0.036789202754933
12 0.0
13 0.0
14 -0.31849753398686
15 0.0
16 0.0
17 -0.21301588486739
18 -0.000758046344921
19 0.000753792367077
20 0.000004253977844
21 0.0
22 0.0
23 0.0
24 0.023266737461507
25 -0.017827125911658
26 -0.005439611549848
27 0.0
28 0.0
29 0.0
30 0.047048610691537
31 -0.052350293617874
32 0.005301682926337
33 0.0
34 0.0
35 0.0
36 0.0
37 0.0
38 0.000731773352568
39 0.0
40 0.0
41 0.000686599689511
42 0.0
43 0.0
44 -0.001668376665790
45 0.0
46 0.0
47 0.0
48 0.004532064881530
49 0.0
50 0.0
51 0.005991646375625
52 0.0
53 0.0
54 -0.012072049467750
55 0.0
56 0.006160725387270
57 0.24984273955695
58 0.98790062996154
59 0.86498440270583
60 0.0
61 0.001864288986036
62 0.000215806653866
63 0.0
64 -0.082666345921426
65 -0.060974595157546
66 0.0
67 -0.22629298851757
68 -0.20061923043224
69 -0.002530035563139
70 0.001649825295511
71 0.000880210267628
72 0.0
73 0.0
74 0.004798175420029
75 -0.018971112914419
76 0.016496968387613
77 0.002474144526806
78 0.0
79 0.0
80 0.027338573866810
81 0.006160725387270
82 0.24984273955695
83 0.98790062996154
84 0.86498440270583
85 0.0
86 -0.001864288986036
87 0.000215806653866
88 0.0
89 0.082666345921426
90 -0.060974595157546
91 0.0
92 0.22629298851757
93 -0.20061923043224
94 -0.002530035563139
95 0.001649825295511
96 0.000880210267628
97 0.0
98 0.0
99 -0.004798175420029
100 -0.018971112914419
101 0.016496968387613
102 0.002474144526806
103 0.0
104 0.0
105 -0.027338573866810
 Sym=      2.3
 Ene=       0.0476
 Spin= Alpha
 Occup=    0.000000
1 0.0
2 0.0
3 0.0
4 0.0
5 0.0
6 0.0
7 -0.072032002468148
8 0.0
9 0.0
10 -0.040566936035112
11 0.0
12 0.0
13 -0.53902558165161
14 0.0
15 0.0
16 -1.16329105525311
17 0.0
18 0.0
19 0.0
20 0.0
21 0.0
22 0.0
23 -0.000187398106000
24 0.0
25 0.0
26 0.0
27 0.0
28 0.0
29 -0.029734803209657
30 0.0
31 0.0
32 0.0
33 0.0
34 0.0
35 -0.12870598502753
36 0.0
37 0.000365917798030
38 0.0
39 0.0
40 0.000524249220199
41 0.0
42 0.0
43 -0.001015179462542
44 0.0
45 0.0
46 0.0
47 -0.006128948019901
48 0.0
49 0.0
50 0.010867156945105
51 0.0
52 0.0
53 -0.002644310303268
54 0.0
55 0.0
56 -0.028034707682449
57 0.28930358524164
58 1.42170651205818
59 3.45942800158585
60 0.0
61 -0.000872328344865
62 0.001058295352132
63 0.0
64 -0.067340359126032
65 -0.072411330137160
66 0.0
67 -0.27155143944374
68 -0.32427757459321
69 -0.003304012154207
70 0.003295298702273
71 0.000008713451934
72 0.0
73 0.0
74 0.004605299956866
75 -0.008041192565278
76 -0.007617528484416
77 0.015658721049694
78 0.0
79 0.0
80 0.032386517377903
81 0.028034707682449
82 -0.28930358524164
83 -1.42170651205818
84 -3.45942800158585
85 0.0
86 -0.000872328344865
87 -0.001058295352132
88 0.0
89 -0.067340359126032
90 0.072411330137160
91 0.0
92 -0.27155143944374
93 0.32427757459321
94 0.003304012154207
95 -0.003295298702273
96 -0.000008713451934
97 0.0
98 0.0
99 0.004605299956866
100 0.008041192565278
101 0.007617528484416
102 -0.015658721049694
103 0.0
104 0.0
105 0.032386517377903
 Sym=      5.1
 Ene=       0.1362
 Spin= Alpha
 Occup=    0.000000
1 -0.005910734509303
2 -0.089608215282875
3 -0.001155044428938
4 1.60949457981664
5 6.69919599414511
6 0.0
7 0.0
8 -0.22572708210017
9 0.0
10 0.0
11 0.078389543745645
12 0.0
13 0.0
14 0.49738330518523
15 0.0
16 0.0
17 2.07836670557378
18 -0.000778382943695
19 0.000924985487557
20 -0.000146602543862
21 0.0
22 0.0
23 0.0
24 -0.009946084901599
25 0.019117928705274
26 -0.009171843803675
27 0.0
28 0.0
29 0.0
30 -0.095760837266585
31 -0.001740213454270
32 0.097501050720855
33 0.0
34 0.0
35 0.0
36 0.0
37 0.0
38 -0.001921484560567
39 0.0
40 0.0
41 -0.000509945635472
42 0.0
43 0.0
44 0.003087887692559
45 0.0
46 0.0
47 0.0
48 0.006612431421435
49 0.0
50 0.0
51 0.000338338626582
52 0.0
53 0.0
54 -0.009209846319513
55 0.0
56 -0.002567698292883
57 -0.25582857258366
58 -3.23353015379181
59 -0.71749264659869
60 0.0
61 0.000369137119288
62 0.000212888468624
63 0.0
64 0.21573767334577
65 0.12460813110726
66 0.0
67 0.75909957413482
68 0.39718423254317
69 0.008300245239319
70 -0.007098447729470
71 -0.001201797509849
72 0.0
73 0.0
74 -0.009915131653173
75 0.039713205902993
76 -0.060817625562773
77 0.021104419659780
78 0.0
79 0.0
80 -0.076560080444832
81 -0.002567698292883
82 -0.25582857258366
83 -3.23353015379181
84 -0.71749264659869
85 0.0
86 -0.000369137119288
87 0.000212888468624
88 0.0
89 -0.21573767334577
90 0.12460813110726
91 0.0
92 -0.75909957413482
93 0.39718423254317
94 0.008300245239319
95 -0.007098447729470
96 -0.001201797509849
97 0.0
98 0.0
99 0.009915131653173
100 0.039713205902993
101 -0.060817625562773
102 0.021104419659780
103 0.0
104 0.0
105 0.076560080444832
 Sym=      2.2
 Ene=       0.1574
 Spin= Alpha
 Occup=    0.000000
1 0.0
2 0.0
3 0.0
4 0.0
5 0.0
6 -0.22267716141380
7 0.0
8 0.0
9 0.028878511171685
10 0.0
11 0.0
12 0.15876896339483
13 0.0
14 0.0
15 1.86289055157178
16 0.0
17 0.0
18 0.0
19 0.0
20 0.0
21 0.0
22 0.001788143383889
23 0.0
24 0.0
25 0.0
26 0.0
27 0.0
28 -0.027681754104583
29 0.0
30 0.0
31 0.0
32 0.0
33 0.0
34 0.21214005166575
35 0.0
36 0.004737542988559
37 0.0
38 0.0
39 -0.003797560469238
40 0.0
41 0.0
42 -0.002558520432010
43 0.0
44 0.0
45 0.0
46 -0.014652156106116
47 0.0
48 0.0
49 0.010110959246311
50 0.0
51 0.0
52 0.009546970995818
53 0.0
54 0.0
55 0.0
56 0.0
57 0.0
58 0.0
59 0.0
60 0.000682735167271
61 0.0
62 0.0
63 -0.045927797772806
64 0.0
65 0.0
66 -0.60084995635254
67 0.0
68 0.0
69 0.0
70 0.0
71 0.0
72 -0.002048994385839
73 -0.002299025490271
74 0.0
75 0.0
76 0.0
77 0.0
78 0.074704264713342
79 0.043182648743028
80 0.0
81 0.0
82 0.0
83 0.0
84 0.0
85 0.000682735167271
86 0.0
87 0.0
88 -0.045927797772806
89 0.0
90 0.0
91 -0.60084995635254
92 0.0
93 0.0
94 0.0
95 0.0
96 0.0
97 0.002048994385839
98 -0.002299025490271
99 0.0
100 0.0
101 0.0
102 0.0
103 -0.074704264713342
104 0.043182648743028
105 0.0
 Sym=      6.1
 Ene=       0.1753
 Spin= Alpha
 Occup=    0.000000
1 0.001503553855661
2 0.23293643020057
3 0.016245525682852
4 -1.88771838587799
5 -4.42710576459940
6 0.0
7 0.0
8 0.041166888426001
9 0.0
10 0.0
11 -0.088234252300769
12 0.0
13 0.0
14 -0.56795795515357
15 0.0
16 0.0
17 0.87921657230755
18 -0.003120883355844
19 0.001075795246784
20 0.002045088109060
21 0.0
22 0.0
23 0.0
24 0.071221197724152
25 -0.057960854797393
26 -0.013260342926760
27 0.0
28 0.0
29 0.0
30 0.023161469119766
31 -0.15516646722578
32 0.13200499810602
33 0.0
34 0.0
35 0.0
36 0.0
37 0.0
38 0.001460602992020
39 0.0
40 0.0
41 0.002576609769829
42 0.0
43 0.0
44 -0.004536214316808
45 0.0
46 0.0
47 0.0
48 0.019693360632455
49 0.0
50 0.0
51 0.006532062182292
52 0.0
53 0.0
54 -0.032953478030045
55 0.0
56 -0.11340377722669
57 0.58720831357620
58 1.47262562621919
59 0.72461271895693
60 0.0
61 -0.012731846590476
62 -0.007676262648324
63 0.0
64 -0.20128168770587
65 -0.19228013408475
66 0.0
67 -0.83071451039185
68 -0.93823179727378
69 -0.004914498823040
70 0.002761395251364
71 0.002153103571676
72 0.0
73 0.0
74 0.014273943339034
75 -0.069495562240004
76 0.046805137092433
77 0.022690425147571
78 0.0
79 0.0
80 0.11480889165281
81 -0.11340377722669
82 0.58720831357620
83 1.47262562621919
84 0.72461271895693
85 0.0
86 0.012731846590476
87 -0.007676262648324
88 0.0
89 0.20128168770587
90 -0.19228013408475
91 0.0
92 0.83071451039185
93 -0.93823179727378
94 -0.004914498823040
95 0.002761395251364
96 0.002153103571676
97 0.0
98 0.0
99 -0.014273943339034
100 -0.069495562240004
101 0.046805137092433
102 0.022690425147571
103 0.0
104 0.0
105 -0.11480889165281
 Sym=      3.3
 Ene=       0.1825
 Spin= Alpha
 Occup=    0.000000
1 0.0
2 0.0
3 0.0
4 0.0
5 0.0
6 0.0
7 -0.23431137068818
8 0.0
9 0.0
10 0.12953871427364
11 0.0
12 0.0