[Molden Format]
[Atoms] (AU)
O    1    8         0.000000000000       0.000000000000      -0.124302651265
H    2    1         0.000000000000      -1.424704710000       0.986386639735
H    3    1        -0.000000000000       1.424704710000       0.986386639735
[GTO]
  1 0
 s    8  1.00
    11720.0000000000         0.0007100000
     1759.0000000000         0.0054700000
      400.8000000000         0.0278370000
      113.7000000000         0.1048000000
       37.0300000000         0.2830620000
       13.2700000000         0.4487190000
        5.0250000000         0.2709520000
        1.0130000000         0.0154580000
 s    8  1.00
    11720.0000000000        -0.0001600000
     1759.0000000000        -0.0012630000
      400.8000000000        -0.0062670000
      113.7000000000        -0.0257160000
       37.0300000000        -0.0709240000
       13.2700000000        -0.1654110000
        5.0250000000        -0.1169550000
        1.0130000000         0.5573680000
 s    1  1.00
        0.3023000000         1.0000000000
 p    3  1.00
       17.7000000000         0.0430180000
        3.8540000000         0.2289130000
        1.0460000000         0.5087280000
 p    1  1.00
        0.2753000000         1.0000000000
 d    1  1.00
        1.1850000000         1.0000000000

  2 0
 s    3  1.00
       13.0100000000         0.0196850000
        1.9620000000         0.1379770000
        0.4446000000         0.4781480000
 s    1  1.00
        0.1220000000         1.0000000000
 p    1  1.00
        0.7270000000         1.0000000000

  3 0
 s    3  1.00
       13.0100000000         0.0196850000
        1.9620000000         0.1379770000
        0.4446000000         0.4781480000
 s    1  1.00
        0.1220000000         1.0000000000
 p    1  1.00
        0.7270000000         1.0000000000

[5D]
[9G]

[MO]
 Sym= A1
 Ene= -2.05504193878478176e+01
 Spin= Alpha
 Occup=  2.00000000000000000e+00
  1  1.00090233711673782e+00
  2  1.18218569881159419e-03
  3 -2.65616439031917534e-03
  4  0.00000000000000000e+00
  5  0.00000000000000000e+00
  6  1.77146011704106335e-03
  7  0.00000000000000000e+00
  8  0.00000000000000000e+00
  9 -4.80000097346545279e-04
 10  1.39013834758571625e-05
 11  0.00000000000000000e+00
 12  0.00000000000000000e+00
 13 -1.39822026074492775e-04
 14  0.00000000000000000e+00
 15 -2.48316020753471748e-04
 16  4.20097131947155702e-04
 17  0.00000000000000000e+00
 18 -5.74904249836309948e-04
 19  4.87036596243491202e-04
 20 -2.48316020753471748e-04
 21  4.20097131947155702e-04
 22  0.00000000000000000e+00
 23  5.74904249836309948e-04
 24  4.87036596243491202e-04
 Sym= A1
 Ene= -1.33767141221376074e+00
 Spin= Alpha
 Occup=  2.00000000000000000e+00
  1  8.23750319287331126e-03
  2 -4.42693483105670693e-01
  3 -3.74498035531203644e-01
  4  0.00000000000000000e+00
  5  0.00000000000000000e+00
  6 -7.94258623925411383e-02
  7  0.00000000000000000e+00
  8  0.00000000000000000e+00
  9  1.34092445806940908e-02
 10 -1.29606223143065302e-03
 11  0.00000000000000000e+00
 12  0.00000000000000000e+00
 13  2.99830598541997798e-03
 14  0.00000000000000000e+00
 15 -1.94341522346533402e-01
 16 -1.00103187758395738e-02
 17  0.00000000000000000e+00
 18 -3.73152124438631272e-02
 19  2.06694627945085245e-02
 20 -1.94341522346533402e-01
 21 -1.00103187758395738e-02
 22  0.00000000000000000e+00
 23  3.73152124438631272e-02
 24  2.06694627945085245e-02
 Sym= B2
 Ene= -6.99245407066645619e-01
 Spin= Alpha
 Occup=  2.00000000000000000e+00
  1  0.00000000000000000e+00
  2  0.00000000000000000e+00
  3  0.00000000000000000e+00
  4  0.00000000000000000e+00
  5  4.90382074360944720e-01
  6  0.00000000000000000e+00
  7  0.00000000000000000e+00
  8  2.22194747073192866e-01
  9  0.00000000000000000e+00
 10  0.00000000000000000e+00
 11  0.00000000000000000e+00
 12  2.69440352258379992e-02
 13  0.00000000000000000e+00
 14  0.00000000000000000e+00
 15 -3.28010759676761465e-01
 16 -8.98064502844283796e-02
 17  0.00000000000000000e+00
 18 -2.31422229384902686e-02
 19  3.27398921815291524e-02
 20  3.28010759676761465e-01
 21  8.98064502844283796e-02
 22  0.00000000000000000e+00
 23 -2.31422229384902686e-02
 24 -3.27398921815291524e-02
 Sym= A1
 Ene= -5.67616178145078143e-01
 Spin= Alpha
 Occup=  2.00000000000000000e+00
  1  2.18901592867830255e-03
  2 -1.50994181746148787e-01
  3 -3.51388902226033029e-01
  4  0.00000000000000000e+00
  5  0.00000000000000000e+00
  6  5.45122340999083410e-01
  7  0.00000000000000000e+00
  8  0.00000000000000000e+00
  9  3.64154482002105317e-01
 10  1.79347594225874249e-02
 11  0.00000000000000000e+00
 12  0.00000000000000000e+00
 13 -4.58075116780868631e-03
 14  0.00000000000000000e+00
 15  2.07004170496511625e-01
 16  4.00098818043322368e-02
 17  0.00000000000000000e+00
 18  3.18323069094876218e-02
 19  7.43225750395020042e-03
 20  2.07004170496511625e-01
 21  4.00098818043322368e-02
 22  0.00000000000000000e+00
 23 -3.18323069094876218e-02
 24  7.43225750395020042e-03
 Sym= B1
 Ene= -4.93377146578448889e-01
 Spin= Alpha
 Occup=  2.00000000000000000e+00
  1  0.00000000000000000e+00
  2  0.00000000000000000e+00
  3  0.00000000000000000e+00
  4  6.31169954127523969e-01
  5  0.00000000000000000e+00
  6  0.00000000000000000e+00
  7  4.95534428811147620e-01
  8  0.00000000000000000e+00
  9  0.00000000000000000e+00
 10  0.00000000000000000e+00
 11  1.82560997156641092e-02
 12  0.00000000000000000e+00
 13  0.00000000000000000e+00
 14  0.00000000000000000e+00
 15  0.00000000000000000e+00
 16  0.00000000000000000e+00
 17  3.11374134859817506e-02
 18  0.00000000000000000e+00
 19  0.00000000000000000e+00
 20  0.00000000000000000e+00
 21  0.00000000000000000e+00
 22  3.11374134859817506e-02
 23  0.00000000000000000e+00
 24  0.00000000000000000e+00
 Sym= A1
 Ene=  1.85710449036323638e-01
 Spin= Alpha
 Occup=  0.00000000000000000e+00
  1  5.20132115700068093e-02
  2 -7.24231749060686436e-02
  3 -1.00302131995205746e+00
  4  0.00000000000000000e+00
  5  0.00000000000000000e+00
  6 -1.90443044493622871e-01
  7  0.00000000000000000e+00
  8  0.00000000000000000e+00
  9 -3.37195246625043910e-01
 10 -7.63650170015481300e-03
 11  0.00000000000000000e+00
 12  0.00000000000000000e+00
 13  1.00113805651669378e-02
 14  0.00000000000000000e+00
 15  5.81664820551020395e-02
 16  8.29521201351105630e-01
 17  0.00000000000000000e+00
 18  1.75895918807466960e-02
 19 -1.64039064505514288e-02
 20  5.81664820551020395e-02
 21  8.29521201351105630e-01
 22  0.00000000000000000e+00
 23 -1.75895918807466960e-02
 24 -1.64039064505514288e-02
 Sym= B2
 Ene=  2.56487403075469800e-01
 Spin= Alpha
 Occup=  0.00000000000000000e+00
  1  0.00000000000000000e+00
  2  0.00000000000000000e+00
  3  0.00000000000000000e+00
  4  0.00000000000000000e+00
  5  2.82951111902180918e-01
  6  0.00000000000000000e+00
  7  0.00000000000000000e+00
  8  6.70602854229308987e-01
  9  0.00000000000000000e+00
 10  0.00000000000000000e+00
 11  0.00000000000000000e+00
 12  2.13318991848087114e-02
 13  0.00000000000000000e+00
 14  0.00000000000000000e+00
 15  2.59607158467570071e-02
 16  1.44897643840794177e+00
 17  0.00000000000000000e+00
 18  2.08649744868038278e-02
 19 -1.72988901487189511e-02
 20 -2.59607158467570071e-02
 21 -1.44897643840794177e+00
 22  0.00000000000000000e+00
 23  2.08649744868038278e-02
 24  1.72988901487189511e-02
 Sym= B2
 Ene=  7.88934366451782054e-01
 Spin= Alpha
 Occup=  0.00000000000000000e+00
  1  0.00000000000000000e+00
  2  0.00000000000000000e+00
  3  0.00000000000000000e+00
  4  0.00000000000000000e+00
  5  2.66334598876188766e-01
  6  0.00000000000000000e+00
  7  0.00000000000000000e+00
  8  4.63994859957956085e-01
  9  0.00000000000000000e+00
 10  0.00000000000000000e+00
 11  0.00000000000000000e+00
 12 -1.11847699966344125e-01
 13  0.00000000000000000e+00
 14  0.00000000000000000e+00
 15  9.44662827178041731e-01
 16 -6.85640235252199193e-01
 17  0.00000000000000000e+00
 18 -7.44838819341677033e-02
 19  1.52293358039711446e-01
 20 -9.44662827178041731e-01
 21  6.85640235252199193e-01
 22  0.00000000000000000e+00
 23 -7.44838819341677033e-02
 24 -1.52293358039711446e-01
 Sym= A1
 Ene=  8.57378253968830384e-01
 Spin= Alpha
 Occup=  0.00000000000000000e+00
  1  6.55345729629920604e-02
  2  2.56734534546351922e-01
  3 -3.26134030360687499e-01
  4  0.00000000000000000e+00
  5  0.00000000000000000e+00
  6  3.32893887844890435e-01
  7  0.00000000000000000e+00
  8  0.00000000000000000e+00
  9 -1.57625146874619260e-02
 10 -1.90968268383372164e-03
 11  0.00000000000000000e+00
 12  0.00000000000000000e+00
 13  1.07075677193508079e-01
 14  0.00000000000000000e+00
 15 -7.83483702053129671e-01
 16  5.47409262549272135e-01
 17  0.00000000000000000e+00
 18  2.97942424169853004e-01
 19 -6.18660458913942446e-02
 20 -7.83483702053129671e-01
 21  5.47409262549272135e-01
 22  0.00000000000000000e+00
 23 -2.97942424169853004e-01
 24 -6.18660458913942446e-02
 Sym= A1
 Ene=  1.16387537804345520e+00
 Spin= Alpha
 Occup=  0.00000000000000000e+00
  1  4.44381887612242850e-03
  2  1.18565322000183909e-01
  3  7.49570143150310120e-01
  4  0.00000000000000000e+00
  5  0.00000000000000000e+00
  6 -7.51692838214527814e-01
  7  0.00000000000000000e+00
  8  0.00000000000000000e+00
  9  1.28330508663129272e+00
 10  1.26953619269785760e-02
 11  0.00000000000000000e+00
 12  0.00000000000000000e+00
 13  7.46703570757428076e-03
 14  0.00000000000000000e+00
 15 -5.53981907940122364e-01
 16 -1.10642861903312170e-01
 17  0.00000000000000000e+00
 18 -8.20739943647259135e-02
 19  2.50288812922697057e-01
 20 -5.53981907940122364e-01
 21 -1.10642861903312170e-01
 22  0.00000000000000000e+00
 23  8.20739943647259135e-02
 24  2.50288812922697057e-01
 Sym= B1
 Ene=  1.20036435306996148e+00
 Spin= Alpha
 Occup=  0.00000000000000000e+00
  1  0.00000000000000000e+00
  2  0.00000000000000000e+00
  3  0.00000000000000000e+00
  4  9.67774415942338151e-01
  5  0.00000000000000000e+00
  6  0.00000000000000000e+00
  7 -1.02626320436408802e+00
  8  0.00000000000000000e+00
  9  0.00000000000000000e+00
 10  0.00000000000000000e+00
 11  3.61819897928793849e-03
 12  0.00000000000000000e+00
 13  0.00000000000000000e+00
 14  0.00000000000000000e+00
 15  0.00000000000000000e+00
 16  0.00000000000000000e+00
 17 -6.85493719847973630e-03
 18  0.00000000000000000e+00
 19  0.00000000000000000e+00
 20  0.00000000000000000e+00
 21  0.00000000000000000e+00
 22 -6.85493719847973630e-03
 23  0.00000000000000000e+00
 24  0.00000000000000000e+00
 Sym= B2
 Ene=  1.25372705843000243e+00
 Spin= Alpha
 Occup=  0.00000000000000000e+00
  1  0.00000000000000000e+00
  2  0.00000000000000000e+00
  3  0.00000000000000000e+00
  4  0.00000000000000000e+00
  5  7.34842874562510073e-01
  6  0.00000000000000000e+00
  7  0.00000000000000000e+00
  8 -1.76412743811415051e+00
  9  0.00000000000000000e+00
 10  0.00000000000000000e+00
 11  0.00000000000000000e+00
 12 -4.52039369152108308e-02
 13  0.00000000000000000e+00
 14  0.00000000000000000e+00
 15 -3.78465186661768704e-01
 16 -8.28906002989014290e-01
 17  0.00000000000000000e+00
 18 -3.00274604140708168e-01
 19  1.89802350866313835e-01
 20  3.78465186661768704e-01
 21  8.28906002989014290e-01
 22  0.00000000000000000e+00
 23 -3.00274604140708168e-01
 24 -1.89802350866313835e-01
 Sym= A1
 Ene=  1.44116712431756278e+00
 Spin= Alpha
 Occup=  0.00000000000000000e+00
  1  1.97924730483965472e-01
  2  5.20526412853187570e-01
  3 -4.88725755205205781e-01
  4  0.00000000000000000e+00
  5  0.00000000000000000e+00
  6 -1.28839608458546917e-01
  7  0.00000000000000000e+00
  8  0.00000000000000000e+00
  9  7.43804945138199503e-01
 10 -1.16578241929941331e-01
 11  0.00000000000000000e+00
 12  0.00000000000000000e+00
 13 -4.49441608282815513e-03
 14  0.00000000000000000e+00
 15 -3.38322926208811381e-01
 16  2.07343154783215522e-01
 17  0.00000000000000000e+00
 18 -3.33109742659173536e-01
 19 -5.43845578115379258e-01
 20 -3.38322926208811381e-01
 21  2.07343154783215522e-01
 22  0.00000000000000000e+00
 23  3.33109742659173536e-01
 24 -5.43845578115379258e-01
 Sym= A2
 Ene=  1.47831802066701323e+00
 Spin= Alpha
 Occup=  0.00000000000000000e+00
  1  0.00000000000000000e+00
  2  0.00000000000000000e+00
  3  0.00000000000000000e+00
  4  0.00000000000000000e+00
  5  0.00000000000000000e+00
  6  0.00000000000000000e+00
  7  0.00000000000000000e+00
  8  0.00000000000000000e+00
  9  0.00000000000000000e+00
 10  0.00000000000000000e+00
 11  0.00000000000000000e+00
 12  0.00000000000000000e+00
 13  0.00000000000000000e+00
 14  1.31215765129626849e-01
 15  0.00000000000000000e+00
 16  0.00000000000000000e+00
 17 -6.86050823168761426e-01
 18  0.00000000000000000e+00
 19  0.00000000000000000e+00
 20  0.00000000000000000e+00
 21  0.00000000000000000e+00
 22  6.86050823168761426e-01
 23  0.00000000000000000e+00
 24  0.00000000000000000e+00
 Sym= B1
 Ene=  1.67330892238755480e+00
 Spin= Alpha
 Occup=  0.00000000000000000e+00
  1  0.00000000000000000e+00
  2  0.00000000000000000e+00
  3  0.00000000000000000e+00
  4  2.28097979068543691e-02
  5  0.00000000000000000e+00
  6  0.00000000000000000e+00
  7  6.32515930726983755e-01
  8  0.00000000000000000e+00
  9  0.00000000000000000e+00
 10  0.00000000000000000e+00
 11 -1.60626359797465867e-01
 12  0.00000000000000000e+00
 13  0.00000000000000000e+00
 14  0.00000000000000000e+00
 15  0.00000000000000000e+00
 16  0.00000000000000000e+00
 17 -7.66835339110664482e-01
 18  0.00000000000000000e+00
 19  0.00000000000000000e+00
 20  0.00000000000000000e+00
 21  0.00000000000000000e+00
 22 -7.66835339110664482e-01
 23  0.00000000000000000e+00
 24  0.00000000000000000e+00
 Sym= A1
 Ene=  1.86640738488298430e+00
 Spin= Alpha
 Occup=  0.00000000000000000e+00
  1  7.24787140013863684e-01
  2  1.59383984742391260e+00
  3 -3.04321774776059994e+00
  4  0.00000000000000000e+00
  5  0.00000000000000000e+00
  6 -1.13284367065870792e-01
  7  0.00000000000000000e+00
  8  0.00000000000000000e+00
  9 -9.68764875976158901e-01
 10  1.13191306893415708e-01
 11  0.00000000000000000e+00
 12  0.00000000000000000e+00
 13 -1.08437915340961089e-01
 14  0.00000000000000000e+00
 15  8.32222845301098579e-01
 16  3.88851865959069676e-01
 17  0.00000000000000000e+00
 18  3.70497885630048485e-01
 19  1.74780118319545624e-02
 20  8.32222845301098579e-01
 21  3.88851865959069676e-01
 22  0.00000000000000000e+00
 23 -3.70497885630048485e-01
 24  1.74780118319545624e-02
 Sym= B2
 Ene=  1.93929830798554703e+00
 Spin= Alpha
 Occup=  0.00000000000000000e+00
  1  0.00000000000000000e+00
  2  0.00000000000000000e+00
  3  0.00000000000000000e+00
  4  0.00000000000000000e+00
  5  3.23966780748422001e-03
  6  0.00000000000000000e+00
  7  0.00000000000000000e+00
  8 -8.94012949373894195e-01
  9  0.00000000000000000e+00
 10  0.00000000000000000e+00
 11  0.00000000000000000e+00
 12  2.98960165841712922e-02
 13  0.00000000000000000e+00
 14  0.00000000000000000e+00
 15 -3.83795022841240063e-01
 16 -9.05379749290656094e-02
 17  0.00000000000000000e+00
 18  4.73848796822953389e-01
 19  6.94554830972819448e-01
 20  3.83795022841240063e-01
 21  9.05379749290656094e-02
 22  0.00000000000000000e+00
 23  4.73848796822953389e-01
 24 -6.94554830972819448e-01
 Sym= B2
 Ene=  2.45504246864111231e+00
 Spin= Alpha
 Occup=  0.00000000000000000e+00
  1  0.00000000000000000e+00
  2  0.00000000000000000e+00
  3  0.00000000000000000e+00
  4  0.00000000000000000e+00
  5  8.39241260795229982e-01
  6  0.00000000000000000e+00
  7  0.00000000000000000e+00
  8  1.47001747036479613e-01
  9  0.00000000000000000e+00
 10  0.00000000000000000e+00
 11  0.00000000000000000e+00
 12 -1.39088824228732644e-01
 13  0.00000000000000000e+00
 14  0.00000000000000000e+00
 15  2.95718516542139542e-01
 16  3.29932243189940522e-01
 17  0.00000000000000000e+00
 18  7.26966990817295766e-01
 19 -5.53567736643988173e-01
 20 -2.95718516542139542e-01
 21 -3.29932243189940522e-01
 22  0.00000000000000000e+00
 23  7.26966990817295766e-01
 24  5.53567736643988173e-01
 Sym= A1
 Ene=  2.49471501220925918e+00
 Spin= Alpha
 Occup=  0.00000000000000000e+00
  1  2.81502210348855864e-01
  2  7.34883447840853798e-01
  3  7.88507171783342287e-01
  4  0.00000000000000000e+00
  5  0.00000000000000000e+00
  6  6.72925365956978383e-01
  7  0.00000000000000000e+00
  8  0.00000000000000000e+00
  9  1.77369576042106680e-01
 10 -5.24756515267580798e-02
 11  0.00000000000000000e+00
 12  0.00000000000000000e+00
 13  2.18716727897606128e-01
 14  0.00000000000000000e+00
 15 -4.78835354128589075e-01
 16 -1.58159556070706142e-01
 17  0.00000000000000000e+00
 18 -7.41247879452210157e-01
 19  5.41026659113676089e-01
 20 -4.78835354128589075e-01
 21 -1.58159556070706142e-01
 22  0.00000000000000000e+00
 23  7.41247879452210157e-01
 24  5.41026659113676089e-01
 Sym= B1
 Ene=  3.28955280929614702e+00
 Spin= Alpha
 Occup=  0.00000000000000000e+00
  1  0.00000000000000000e+00
  2  0.00000000000000000e+00
  3  0.00000000000000000e+00
  4  1.08340507137342518e-02
  5  0.00000000000000000e+00
  6  0.00000000000000000e+00
  7 -3.13404434570063728e-01
  8  0.00000000000000000e+00
  9  0.00000000000000000e+00
 10  0.00000000000000000e+00
 11 -1.04370603459814237e+00
 12  0.00000000000000000e+00
 13  0.00000000000000000e+00
 14  0.00000000000000000e+00
 15  0.00000000000000000e+00
 16  0.00000000000000000e+00
 17  4.00374152221148971e-01
 18  0.00000000000000000e+00
 19  0.00000000000000000e+00
 20  0.00000000000000000e+00
 21  0.00000000000000000e+00
 22  4.00374152221148971e-01
 23  0.00000000000000000e+00
 24  0.00000000000000000e+00
 Sym= A2
 Ene=  3.33919475275185951e+00
 Spin= Alpha
 Occup=  0.00000000000000000e+00
  1  0.00000000000000000e+00
  2  0.00000000000000000e+00
  3  0.00000000000000000e+00
  4  0.00000000000000000e+00
  5  0.00000000000000000e+00
  6  0.00000000000000000e+00
  7  0.00000000000000000e+00
  8  0.00000000000000000e+00
  9  0.00000000000000000e+00
 10  0.00000000000000000e+00
 11  0.00000000000000000e+00
 12  0.00000000000000000e+00
 13  0.00000000000000000e+00
 14  1.06639539737262723e+00
 15  0.00000000000000000e+00
 16  0.00000000000000000e+00
 17  3.71992245177641789e-01
 18  0.00000000000000000e+00
 19  0.00000000000000000e+00
 20  0.00000000000000000e+00
 21  0.00000000000000000e+00
 22 -3.71992245177641789e-01
 23  0.00000000000000000e+00
 24  0.00000000000000000e+00
 Sym= A1
 Ene=  3.51467759381154821e+00
 Spin= Alpha
 Occup=  0.00000000000000000e+00
  1  8.35198324438483353e-02
  2  1.53679529113703806e-01
  3 -5.43513591283536712e-01
  4  0.00000000000000000e+00
  5  0.00000000000000000e+00
  6 -1.64817584973610542e-02
  7  0.00000000000000000e+00
  8  0.00000000000000000e+00
  9 -5.33110351614541678e-01
 10 -1.08433321792327542e+00
 11  0.00000000000000000e+00
 12  0.00000000000000000e+00
 13 -1.89883644044641475e-01
 14  0.00000000000000000e+00
 15  2.99289145650486643e-01
 16  3.59831263862288864e-02
 17  0.00000000000000000e+00
 18  3.48203228319675651e-01
 19  3.18634926154283737e-01
 20  2.99289145650486643e-01
 21  3.59831263862288864e-02
 22  0.00000000000000000e+00
 23 -3.48203228319675651e-01
 24  3.18634926154283737e-01
 Sym= A1
 Ene=  3.86480714823280369e+00
 Spin= Alpha
 Occup=  0.00000000000000000e+00
  1  1.41906878162994854e-01
  2  1.74014902695091733e-01
  3 -2.27988119064060379e+00
  4  0.00000000000000000e+00
  5  0.00000000000000000e+00
  6 -4.08662696161706640e-01
  7  0.00000000000000000e+00
  8  0.00000000000000000e+00
  9 -9.32360382715969882e-01
 10 -1.50608951011094339e-01
 11  0.00000000000000000e+00
 12  0.00000000000000000e+00
 13  1.15637368170515353e+00
 14  0.00000000000000000e+00
 15  1.24690059821892785e+00
 16  1.92136141184564097e-01
 17  0.00000000000000000e+00
 18  6.21508255962908818e-01
 19 -4.93112229837647909e-01
 20  1.24690059821892785e+00
 21  1.92136141184564097e-01
 22  0.00000000000000000e+00
 23 -6.21508255962908818e-01
 24 -4.93112229837647909e-01
 Sym= B2
 Ene=  4.15158076697573364e+00
 Spin= Alpha
 Occup=  0.00000000000000000e+00
  1  0.00000000000000000e+00
  2  0.00000000000000000e+00
  3  0.00000000000000000e+00
  4  0.00000000000000000e+00
  5  4.72048729510936793e-01
  6  0.00000000000000000e+00
  7  0.00000000000000000e+00
  8  1.14392617068457825e+00
  9  0.00000000000000000e+00
 10  0.00000000000000000e+00
 11  0.00000000000000000e+00
 12  1.32715724799066770e+00
 13  0.00000000000000000e+00
 14  0.00000000000000000e+00
 15  1.09148261305895766e+00
 16  2.89261879155786827e-01
 17  0.00000000000000000e+00
 18  6.06198962869393676e-01
 19 -4.98052341417447531e-01
 20 -1.09148261305895766e+00
 21 -2.89261879155786827e-01
 22  0.00000000000000000e+00
 23  6.06198962869393676e-01
 24  4.98052341417447531e-01
